# Motion State
# Angle Units : degrees
# Time        	centreOfRotation	centreOfMass	rotation	velocity	omega
1000          	(0.000000e+00 2.595730e-04 0.000000e+00)	(0.000000e+00 2.595730e-04 0.000000e+00)	(0.000000e+00 0.000000e+00 0.000000e+00)	(0.000000e+00 7.018600e-04 0.000000e+00)	(0.000000e+00 0.000000e+00 0.000000e+00)
1000.1        	(0.000000e+00 3.291832e-04 0.000000e+00)	(0.000000e+00 3.291832e-04 0.000000e+00)	(0.000000e+00 0.000000e+00 0.000000e+00)	(0.000000e+00 6.888351e-04 0.000000e+00)	(0.000000e+00 0.000000e+00 0.000000e+00)
1000.2        	(0.000000e+00 3.973400e-04 0.000000e+00)	(0.000000e+00 3.973400e-04 0.000000e+00)	(0.000000e+00 0.000000e+00 0.000000e+00)	(0.000000e+00 6.728446e-04 0.000000e+00)	(0.000000e+00 0.000000e+00 0.000000e+00)
1000.3        	(0.000000e+00 4.637521e-04 0.000000e+00)	(0.000000e+00 4.637521e-04 0.000000e+00)	(0.000000e+00 0.000000e+00 0.000000e+00)	(0.000000e+00 6.539277e-04 0.000000e+00)	(0.000000e+00 0.000000e+00 0.000000e+00)
1000.4        	(0.000000e+00 5.281255e-04 0.000000e+00)	(0.000000e+00 5.281255e-04 0.000000e+00)	(0.000000e+00 0.000000e+00 0.000000e+00)	(0.000000e+00 6.322058e-04 0.000000e+00)	(0.000000e+00 0.000000e+00 0.000000e+00)
1000.5        	(0.000000e+00 5.901932e-04 0.000000e+00)	(0.000000e+00 5.901932e-04 0.000000e+00)	(0.000000e+00 0.000000e+00 0.000000e+00)	(0.000000e+00 6.077969e-04 0.000000e+00)	(0.000000e+00 0.000000e+00 0.000000e+00)
1000.6        	(0.000000e+00 6.496849e-04 0.000000e+00)	(0.000000e+00 6.496849e-04 0.000000e+00)	(0.000000e+00 0.000000e+00 0.000000e+00)	(0.000000e+00 5.807669e-04 0.000000e+00)	(0.000000e+00 0.000000e+00 0.000000e+00)
1000.7        	(0.000000e+00 7.063466e-04 0.000000e+00)	(0.000000e+00 7.063466e-04 0.000000e+00)	(0.000000e+00 0.000000e+00 0.000000e+00)	(0.000000e+00 5.512681e-04 0.000000e+00)	(0.000000e+00 0.000000e+00 0.000000e+00)
1000.8        	(0.000000e+00 7.599385e-04 0.000000e+00)	(0.000000e+00 7.599385e-04 0.000000e+00)	(0.000000e+00 0.000000e+00 0.000000e+00)	(0.000000e+00 5.194216e-04 0.000000e+00)	(0.000000e+00 0.000000e+00 0.000000e+00)
1000.9        	(0.000000e+00 8.102309e-04 0.000000e+00)	(0.000000e+00 8.102309e-04 0.000000e+00)	(0.000000e+00 0.000000e+00 0.000000e+00)	(0.000000e+00 4.853468e-04 0.000000e+00)	(0.000000e+00 0.000000e+00 0.000000e+00)
1001          	(0.000000e+00 8.570079e-04 0.000000e+00)	(0.000000e+00 8.570079e-04 0.000000e+00)	(0.000000e+00 0.000000e+00 0.000000e+00)	(0.000000e+00 4.492055e-04 0.000000e+00)	(0.000000e+00 0.000000e+00 0.000000e+00)
1001.1        	(0.000000e+00 9.000720e-04 0.000000e+00)	(0.000000e+00 9.000720e-04 0.000000e+00)	(0.000000e+00 0.000000e+00 0.000000e+00)	(0.000000e+00 4.111816e-04 0.000000e+00)	(0.000000e+00 0.000000e+00 0.000000e+00)
1001.2        	(0.000000e+00 9.392442e-04 0.000000e+00)	(0.000000e+00 9.392442e-04 0.000000e+00)	(0.000000e+00 0.000000e+00 0.000000e+00)	(0.000000e+00 3.713948e-04 0.000000e+00)	(0.000000e+00 0.000000e+00 0.000000e+00)
1001.3        	(0.000000e+00 9.743510e-04 0.000000e+00)	(0.000000e+00 9.743510e-04 0.000000e+00)	(0.000000e+00 0.000000e+00 0.000000e+00)	(0.000000e+00 3.300091e-04 0.000000e+00)	(0.000000e+00 0.000000e+00 0.000000e+00)
1001.4        	(0.000000e+00 1.005246e-03 0.000000e+00)	(0.000000e+00 1.005246e-03 0.000000e+00)	(0.000000e+00 0.000000e+00 0.000000e+00)	(0.000000e+00 2.872424e-04 0.000000e+00)	(0.000000e+00 0.000000e+00 0.000000e+00)
1001.5        	(0.000000e+00 1.031799e-03 0.000000e+00)	(0.000000e+00 1.031799e-03 0.000000e+00)	(0.000000e+00 0.000000e+00 0.000000e+00)	(0.000000e+00 2.432418e-04 0.000000e+00)	(0.000000e+00 0.000000e+00 0.000000e+00)
1001.6        	(0.000000e+00 1.053894e-03 0.000000e+00)	(0.000000e+00 1.053894e-03 0.000000e+00)	(0.000000e+00 0.000000e+00 0.000000e+00)	(0.000000e+00 1.981970e-04 0.000000e+00)	(0.000000e+00 0.000000e+00 0.000000e+00)
1001.7        	(0.000000e+00 1.071439e-03 0.000000e+00)	(0.000000e+00 1.071439e-03 0.000000e+00)	(0.000000e+00 0.000000e+00 0.000000e+00)	(0.000000e+00 1.523011e-04 0.000000e+00)	(0.000000e+00 0.000000e+00 0.000000e+00)
1001.8        	(0.000000e+00 1.084355e-03 0.000000e+00)	(0.000000e+00 1.084355e-03 0.000000e+00)	(0.000000e+00 0.000000e+00 0.000000e+00)	(0.000000e+00 1.057118e-04 0.000000e+00)	(0.000000e+00 0.000000e+00 0.000000e+00)
1001.9        	(0.000000e+00 1.092581e-03 0.000000e+00)	(0.000000e+00 1.092581e-03 0.000000e+00)	(0.000000e+00 0.000000e+00 0.000000e+00)	(0.000000e+00 5.860465e-05 0.000000e+00)	(0.000000e+00 0.000000e+00 0.000000e+00)
1002          	(0.000000e+00 1.096076e-03 0.000000e+00)	(0.000000e+00 1.096076e-03 0.000000e+00)	(0.000000e+00 0.000000e+00 0.000000e+00)	(0.000000e+00 1.117229e-05 0.000000e+00)	(0.000000e+00 0.000000e+00 0.000000e+00)
1002.1        	(0.000000e+00 1.094816e-03 0.000000e+00)	(0.000000e+00 1.094816e-03 0.000000e+00)	(0.000000e+00 0.000000e+00 0.000000e+00)	(0.000000e+00 -3.633532e-05 0.000000e+00)	(0.000000e+00 0.000000e+00 0.000000e+00)
1002.2        	(0.000000e+00 1.088809e-03 0.000000e+00)	(0.000000e+00 1.088809e-03 0.000000e+00)	(0.000000e+00 0.000000e+00 0.000000e+00)	(0.000000e+00 -8.368550e-05 0.000000e+00)	(0.000000e+00 0.000000e+00 0.000000e+00)
1002.3        	(0.000000e+00 1.078079e-03 0.000000e+00)	(0.000000e+00 1.078079e-03 0.000000e+00)	(0.000000e+00 0.000000e+00 0.000000e+00)	(0.000000e+00 -1.307318e-04 0.000000e+00)	(0.000000e+00 0.000000e+00 0.000000e+00)
1002.4        	(0.000000e+00 1.062662e-03 0.000000e+00)	(0.000000e+00 1.062662e-03 0.000000e+00)	(0.000000e+00 0.000000e+00 0.000000e+00)	(0.000000e+00 -1.772462e-04 0.000000e+00)	(0.000000e+00 0.000000e+00 0.000000e+00)
1002.5        	(0.000000e+00 1.042629e-03 0.000000e+00)	(0.000000e+00 1.042629e-03 0.000000e+00)	(0.000000e+00 0.000000e+00 0.000000e+00)	(0.000000e+00 -2.230689e-04 0.000000e+00)	(0.000000e+00 0.000000e+00 0.000000e+00)
1002.6        	(0.000000e+00 1.018048e-03 0.000000e+00)	(0.000000e+00 1.018048e-03 0.000000e+00)	(0.000000e+00 0.000000e+00 0.000000e+00)	(0.000000e+00 -2.680203e-04 0.000000e+00)	(0.000000e+00 0.000000e+00 0.000000e+00)
1002.7        	(0.000000e+00 9.890253e-04 0.000000e+00)	(0.000000e+00 9.890253e-04 0.000000e+00)	(0.000000e+00 0.000000e+00 0.000000e+00)	(0.000000e+00 -3.117982e-04 0.000000e+00)	(0.000000e+00 0.000000e+00 0.000000e+00)
1002.8        	(0.000000e+00 9.556887e-04 0.000000e+00)	(0.000000e+00 9.556887e-04 0.000000e+00)	(0.000000e+00 0.000000e+00 0.000000e+00)	(0.000000e+00 -3.542175e-04 0.000000e+00)	(0.000000e+00 0.000000e+00 0.000000e+00)
1002.9        	(0.000000e+00 9.181818e-04 0.000000e+00)	(0.000000e+00 9.181818e-04 0.000000e+00)	(0.000000e+00 0.000000e+00 0.000000e+00)	(0.000000e+00 -3.951295e-04 0.000000e+00)	(0.000000e+00 0.000000e+00 0.000000e+00)
1003          	(0.000000e+00 8.766628e-04 0.000000e+00)	(0.000000e+00 8.766628e-04 0.000000e+00)	(0.000000e+00 0.000000e+00 0.000000e+00)	(0.000000e+00 -4.343612e-04 0.000000e+00)	(0.000000e+00 0.000000e+00 0.000000e+00)
1003.1        	(0.000000e+00 8.313096e-04 0.000000e+00)	(0.000000e+00 8.313096e-04 0.000000e+00)	(0.000000e+00 0.000000e+00 0.000000e+00)	(0.000000e+00 -4.717257e-04 0.000000e+00)	(0.000000e+00 0.000000e+00 0.000000e+00)
1003.2        	(0.000000e+00 7.823177e-04 0.000000e+00)	(0.000000e+00 7.823177e-04 0.000000e+00)	(0.000000e+00 0.000000e+00 0.000000e+00)	(0.000000e+00 -5.070598e-04 0.000000e+00)	(0.000000e+00 0.000000e+00 0.000000e+00)
1003.3        	(0.000000e+00 7.298976e-04 0.000000e+00)	(0.000000e+00 7.298976e-04 0.000000e+00)	(0.000000e+00 0.000000e+00 0.000000e+00)	(0.000000e+00 -5.401928e-04 0.000000e+00)	(0.000000e+00 0.000000e+00 0.000000e+00)
1003.4        	(0.000000e+00 6.742791e-04 0.000000e+00)	(0.000000e+00 6.742791e-04 0.000000e+00)	(0.000000e+00 0.000000e+00 0.000000e+00)	(0.000000e+00 -5.709550e-04 0.000000e+00)	(0.000000e+00 0.000000e+00 0.000000e+00)
1003.5        	(0.000000e+00 6.157066e-04 0.000000e+00)	(0.000000e+00 6.157066e-04 0.000000e+00)	(0.000000e+00 0.000000e+00 0.000000e+00)	(0.000000e+00 -5.991950e-04 0.000000e+00)	(0.000000e+00 0.000000e+00 0.000000e+00)
1003.6        	(0.000000e+00 5.544401e-04 0.000000e+00)	(0.000000e+00 5.544401e-04 0.000000e+00)	(0.000000e+00 0.000000e+00 0.000000e+00)	(0.000000e+00 -6.247744e-04 0.000000e+00)	(0.000000e+00 0.000000e+00 0.000000e+00)
1003.7        	(0.000000e+00 4.907517e-04 0.000000e+00)	(0.000000e+00 4.907517e-04 0.000000e+00)	(0.000000e+00 0.000000e+00 0.000000e+00)	(0.000000e+00 -6.475789e-04 0.000000e+00)	(0.000000e+00 0.000000e+00 0.000000e+00)
1003.8        	(0.000000e+00 4.249243e-04 0.000000e+00)	(0.000000e+00 4.249243e-04 0.000000e+00)	(0.000000e+00 0.000000e+00 0.000000e+00)	(0.000000e+00 -6.675226e-04 0.000000e+00)	(0.000000e+00 0.000000e+00 0.000000e+00)
1003.9        	(0.000000e+00 3.572472e-04 0.000000e+00)	(0.000000e+00 3.572472e-04 0.000000e+00)	(0.000000e+00 0.000000e+00 0.000000e+00)	(0.000000e+00 -6.845388e-04 0.000000e+00)	(0.000000e+00 0.000000e+00 0.000000e+00)
1004          	(0.000000e+00 2.880166e-04 0.000000e+00)	(0.000000e+00 2.880166e-04 0.000000e+00)	(0.000000e+00 0.000000e+00 0.000000e+00)	(0.000000e+00 -6.985307e-04 0.000000e+00)	(0.000000e+00 0.000000e+00 0.000000e+00)
1004.1        	(0.000000e+00 2.175411e-04 0.000000e+00)	(0.000000e+00 2.175411e-04 0.000000e+00)	(0.000000e+00 0.000000e+00 0.000000e+00)	(0.000000e+00 -7.094190e-04 0.000000e+00)	(0.000000e+00 0.000000e+00 0.000000e+00)
1004.2        	(0.000000e+00 1.461328e-04 0.000000e+00)	(0.000000e+00 1.461328e-04 0.000000e+00)	(0.000000e+00 0.000000e+00 0.000000e+00)	(0.000000e+00 -7.171679e-04 0.000000e+00)	(0.000000e+00 0.000000e+00 0.000000e+00)
1004.3        	(0.000000e+00 7.410750e-05 0.000000e+00)	(0.000000e+00 7.410750e-05 0.000000e+00)	(0.000000e+00 0.000000e+00 0.000000e+00)	(0.000000e+00 -7.217779e-04 0.000000e+00)	(0.000000e+00 0.000000e+00 0.000000e+00)
1004.4        	(0.000000e+00 1.777177e-06 0.000000e+00)	(0.000000e+00 1.777177e-06 0.000000e+00)	(0.000000e+00 0.000000e+00 0.000000e+00)	(0.000000e+00 -7.232356e-04 0.000000e+00)	(0.000000e+00 0.000000e+00 0.000000e+00)
1004.5        	(0.000000e+00 -7.053962e-05 0.000000e+00)	(0.000000e+00 -7.053962e-05 0.000000e+00)	(0.000000e+00 0.000000e+00 0.000000e+00)	(0.000000e+00 -7.215242e-04 0.000000e+00)	(0.000000e+00 0.000000e+00 0.000000e+00)
1004.6        	(0.000000e+00 -1.425277e-04 0.000000e+00)	(0.000000e+00 -1.425277e-04 0.000000e+00)	(0.000000e+00 0.000000e+00 0.000000e+00)	(0.000000e+00 -7.166431e-04 0.000000e+00)	(0.000000e+00 0.000000e+00 0.000000e+00)
1004.7        	(0.000000e+00 -2.138682e-04 0.000000e+00)	(0.000000e+00 -2.138682e-04 0.000000e+00)	(0.000000e+00 0.000000e+00 0.000000e+00)	(0.000000e+00 -7.086293e-04 0.000000e+00)	(0.000000e+00 0.000000e+00 0.000000e+00)
1004.8        	(0.000000e+00 -2.842535e-04 0.000000e+00)	(0.000000e+00 -2.842535e-04 0.000000e+00)	(0.000000e+00 0.000000e+00 0.000000e+00)	(0.000000e+00 -6.975530e-04 0.000000e+00)	(0.000000e+00 0.000000e+00 0.000000e+00)
1004.9        	(0.000000e+00 -3.533788e-04 0.000000e+00)	(0.000000e+00 -3.533788e-04 0.000000e+00)	(0.000000e+00 0.000000e+00 0.000000e+00)	(0.000000e+00 -6.834674e-04 0.000000e+00)	(0.000000e+00 0.000000e+00 0.000000e+00)
1005          	(0.000000e+00 -4.209470e-04 0.000000e+00)	(0.000000e+00 -4.209470e-04 0.000000e+00)	(0.000000e+00 0.000000e+00 0.000000e+00)	(0.000000e+00 -6.664258e-04 0.000000e+00)	(0.000000e+00 0.000000e+00 0.000000e+00)
1005.1        	(0.000000e+00 -4.866640e-04 0.000000e+00)	(0.000000e+00 -4.866640e-04 0.000000e+00)	(0.000000e+00 0.000000e+00 0.000000e+00)	(0.000000e+00 -6.464994e-04 0.000000e+00)	(0.000000e+00 0.000000e+00 0.000000e+00)
1005.2        	(0.000000e+00 -5.502469e-04 0.000000e+00)	(0.000000e+00 -5.502469e-04 0.000000e+00)	(0.000000e+00 0.000000e+00 0.000000e+00)	(0.000000e+00 -6.238143e-04 0.000000e+00)	(0.000000e+00 0.000000e+00 0.000000e+00)
1005.3        	(0.000000e+00 -6.114269e-04 0.000000e+00)	(0.000000e+00 -6.114269e-04 0.000000e+00)	(0.000000e+00 0.000000e+00 0.000000e+00)	(0.000000e+00 -5.984706e-04 0.000000e+00)	(0.000000e+00 0.000000e+00 0.000000e+00)
1005.4        	(0.000000e+00 -6.699410e-04 0.000000e+00)	(0.000000e+00 -6.699410e-04 0.000000e+00)	(0.000000e+00 0.000000e+00 0.000000e+00)	(0.000000e+00 -5.705516e-04 0.000000e+00)	(0.000000e+00 0.000000e+00 0.000000e+00)
1005.5        	(0.000000e+00 -7.255372e-04 0.000000e+00)	(0.000000e+00 -7.255372e-04 0.000000e+00)	(0.000000e+00 0.000000e+00 0.000000e+00)	(0.000000e+00 -5.402121e-04 0.000000e+00)	(0.000000e+00 0.000000e+00 0.000000e+00)
1005.6        	(0.000000e+00 -7.779834e-04 0.000000e+00)	(0.000000e+00 -7.779834e-04 0.000000e+00)	(0.000000e+00 0.000000e+00 0.000000e+00)	(0.000000e+00 -5.075914e-04 0.000000e+00)	(0.000000e+00 0.000000e+00 0.000000e+00)
1005.7        	(0.000000e+00 -8.270555e-04 0.000000e+00)	(0.000000e+00 -8.270555e-04 0.000000e+00)	(0.000000e+00 0.000000e+00 0.000000e+00)	(0.000000e+00 -4.727844e-04 0.000000e+00)	(0.000000e+00 0.000000e+00 0.000000e+00)
1005.8        	(0.000000e+00 -8.725403e-04 0.000000e+00)	(0.000000e+00 -8.725403e-04 0.000000e+00)	(0.000000e+00 0.000000e+00 0.000000e+00)	(0.000000e+00 -4.359689e-04 0.000000e+00)	(0.000000e+00 0.000000e+00 0.000000e+00)
1005.9        	(0.000000e+00 -9.142493e-04 0.000000e+00)	(0.000000e+00 -9.142493e-04 0.000000e+00)	(0.000000e+00 0.000000e+00 0.000000e+00)	(0.000000e+00 -3.973288e-04 0.000000e+00)	(0.000000e+00 0.000000e+00 0.000000e+00)
1006          	(0.000000e+00 -9.520061e-04 0.000000e+00)	(0.000000e+00 -9.520061e-04 0.000000e+00)	(0.000000e+00 0.000000e+00 0.000000e+00)	(0.000000e+00 -3.569701e-04 0.000000e+00)	(0.000000e+00 0.000000e+00 0.000000e+00)
1006.1        	(0.000000e+00 -9.856433e-04 0.000000e+00)	(0.000000e+00 -9.856433e-04 0.000000e+00)	(0.000000e+00 0.000000e+00 0.000000e+00)	(0.000000e+00 -3.150667e-04 0.000000e+00)	(0.000000e+00 0.000000e+00 0.000000e+00)
1006.2        	(0.000000e+00 -1.015019e-03 0.000000e+00)	(0.000000e+00 -1.015019e-03 0.000000e+00)	(0.000000e+00 0.000000e+00 0.000000e+00)	(0.000000e+00 -2.718490e-04 0.000000e+00)	(0.000000e+00 0.000000e+00 0.000000e+00)
1006.3        	(0.000000e+00 -1.040013e-03 0.000000e+00)	(0.000000e+00 -1.040013e-03 0.000000e+00)	(0.000000e+00 0.000000e+00 0.000000e+00)	(0.000000e+00 -2.274742e-04 0.000000e+00)	(0.000000e+00 0.000000e+00 0.000000e+00)
1006.4        	(0.000000e+00 -1.060514e-03 0.000000e+00)	(0.000000e+00 -1.060514e-03 0.000000e+00)	(0.000000e+00 0.000000e+00 0.000000e+00)	(0.000000e+00 -1.821132e-04 0.000000e+00)	(0.000000e+00 0.000000e+00 0.000000e+00)
1006.5        	(0.000000e+00 -1.076436e-03 0.000000e+00)	(0.000000e+00 -1.076436e-03 0.000000e+00)	(0.000000e+00 0.000000e+00 0.000000e+00)	(0.000000e+00 -1.359569e-04 0.000000e+00)	(0.000000e+00 0.000000e+00 0.000000e+00)
1006.6        	(0.000000e+00 -1.087706e-03 0.000000e+00)	(0.000000e+00 -1.087706e-03 0.000000e+00)	(0.000000e+00 0.000000e+00 0.000000e+00)	(0.000000e+00 -8.913827e-05 0.000000e+00)	(0.000000e+00 0.000000e+00 0.000000e+00)
1006.7        	(0.000000e+00 -1.094263e-03 0.000000e+00)	(0.000000e+00 -1.094263e-03 0.000000e+00)	(0.000000e+00 0.000000e+00 0.000000e+00)	(0.000000e+00 -4.188326e-05 0.000000e+00)	(0.000000e+00 0.000000e+00 0.000000e+00)
1006.8        	(0.000000e+00 -1.096082e-03 0.000000e+00)	(0.000000e+00 -1.096082e-03 0.000000e+00)	(0.000000e+00 0.000000e+00 0.000000e+00)	(0.000000e+00 5.564402e-06 0.000000e+00)	(0.000000e+00 0.000000e+00 0.000000e+00)
1006.9        	(0.000000e+00 -1.093151e-03 0.000000e+00)	(0.000000e+00 -1.093151e-03 0.000000e+00)	(0.000000e+00 0.000000e+00 0.000000e+00)	(0.000000e+00 5.303136e-05 0.000000e+00)	(0.000000e+00 0.000000e+00 0.000000e+00)
1007          	(0.000000e+00 -1.085476e-03 0.000000e+00)	(0.000000e+00 -1.085476e-03 0.000000e+00)	(0.000000e+00 0.000000e+00 0.000000e+00)	(0.000000e+00 1.002981e-04 0.000000e+00)	(0.000000e+00 0.000000e+00 0.000000e+00)
1007.1        	(0.000000e+00 -1.073091e-03 0.000000e+00)	(0.000000e+00 -1.073091e-03 0.000000e+00)	(0.000000e+00 0.000000e+00 0.000000e+00)	(0.000000e+00 1.471640e-04 0.000000e+00)	(0.000000e+00 0.000000e+00 0.000000e+00)
1007.2        	(0.000000e+00 -1.056043e-03 0.000000e+00)	(0.000000e+00 -1.056043e-03 0.000000e+00)	(0.000000e+00 0.000000e+00 0.000000e+00)	(0.000000e+00 1.934280e-04 0.000000e+00)	(0.000000e+00 0.000000e+00 0.000000e+00)
1007.3        	(0.000000e+00 -1.034405e-03 0.000000e+00)	(0.000000e+00 -1.034405e-03 0.000000e+00)	(0.000000e+00 0.000000e+00 0.000000e+00)	(0.000000e+00 2.389407e-04 0.000000e+00)	(0.000000e+00 0.000000e+00 0.000000e+00)
1007.4        	(0.000000e+00 -1.008255e-03 0.000000e+00)	(0.000000e+00 -1.008255e-03 0.000000e+00)	(0.000000e+00 0.000000e+00 0.000000e+00)	(0.000000e+00 2.834844e-04 0.000000e+00)	(0.000000e+00 0.000000e+00 0.000000e+00)
1007.5        	(0.000000e+00 -9.777084e-04 0.000000e+00)	(0.000000e+00 -9.777084e-04 0.000000e+00)	(0.000000e+00 0.000000e+00 0.000000e+00)	(0.000000e+00 3.267809e-04 0.000000e+00)	(0.000000e+00 0.000000e+00 0.000000e+00)
1007.6        	(0.000000e+00 -9.428989e-04 0.000000e+00)	(0.000000e+00 -9.428989e-04 0.000000e+00)	(0.000000e+00 0.000000e+00 0.000000e+00)	(0.000000e+00 3.686791e-04 0.000000e+00)	(0.000000e+00 0.000000e+00 0.000000e+00)
1007.7        	(0.000000e+00 -9.039726e-04 0.000000e+00)	(0.000000e+00 -9.039726e-04 0.000000e+00)	(0.000000e+00 0.000000e+00 0.000000e+00)	(0.000000e+00 4.090165e-04 0.000000e+00)	(0.000000e+00 0.000000e+00 0.000000e+00)
1007.8        	(0.000000e+00 -8.610956e-04 0.000000e+00)	(0.000000e+00 -8.610956e-04 0.000000e+00)	(0.000000e+00 0.000000e+00 0.000000e+00)	(0.000000e+00 4.476102e-04 0.000000e+00)	(0.000000e+00 0.000000e+00 0.000000e+00)
1007.9        	(0.000000e+00 -8.144505e-04 0.000000e+00)	(0.000000e+00 -8.144505e-04 0.000000e+00)	(0.000000e+00 0.000000e+00 0.000000e+00)	(0.000000e+00 4.842680e-04 0.000000e+00)	(0.000000e+00 0.000000e+00 0.000000e+00)
1008          	(0.000000e+00 -7.642420e-04 0.000000e+00)	(0.000000e+00 -7.642420e-04 0.000000e+00)	(0.000000e+00 0.000000e+00 0.000000e+00)	(0.000000e+00 5.188333e-04 0.000000e+00)	(0.000000e+00 0.000000e+00 0.000000e+00)
1008.1        	(0.000000e+00 -7.106839e-04 0.000000e+00)	(0.000000e+00 -7.106839e-04 0.000000e+00)	(0.000000e+00 0.000000e+00 0.000000e+00)	(0.000000e+00 5.511338e-04 0.000000e+00)	(0.000000e+00 0.000000e+00 0.000000e+00)
1008.2        	(0.000000e+00 -6.540152e-04 0.000000e+00)	(0.000000e+00 -6.540152e-04 0.000000e+00)	(0.000000e+00 0.000000e+00 0.000000e+00)	(0.000000e+00 5.810159e-04 0.000000e+00)	(0.000000e+00 0.000000e+00 0.000000e+00)
1008.3        	(0.000000e+00 -5.944807e-04 0.000000e+00)	(0.000000e+00 -5.944807e-04 0.000000e+00)	(0.000000e+00 0.000000e+00 0.000000e+00)	(0.000000e+00 6.083464e-04 0.000000e+00)	(0.000000e+00 0.000000e+00 0.000000e+00)
1008.4        	(0.000000e+00 -5.323459e-04 0.000000e+00)	(0.000000e+00 -5.323459e-04 0.000000e+00)	(0.000000e+00 0.000000e+00 0.000000e+00)	(0.000000e+00 6.329626e-04 0.000000e+00)	(0.000000e+00 0.000000e+00 0.000000e+00)
1008.5        	(0.000000e+00 -4.678882e-04 0.000000e+00)	(0.000000e+00 -4.678882e-04 0.000000e+00)	(0.000000e+00 0.000000e+00 0.000000e+00)	(0.000000e+00 6.547808e-04 0.000000e+00)	(0.000000e+00 0.000000e+00 0.000000e+00)
1008.6        	(0.000000e+00 -4.013898e-04 0.000000e+00)	(0.000000e+00 -4.013898e-04 0.000000e+00)	(0.000000e+00 0.000000e+00 0.000000e+00)	(0.000000e+00 6.737243e-04 0.000000e+00)	(0.000000e+00 0.000000e+00 0.000000e+00)
1008.7        	(0.000000e+00 -3.331433e-04 0.000000e+00)	(0.000000e+00 -3.331433e-04 0.000000e+00)	(0.000000e+00 0.000000e+00 0.000000e+00)	(0.000000e+00 6.896958e-04 0.000000e+00)	(0.000000e+00 0.000000e+00 0.000000e+00)
1008.8        	(0.000000e+00 -2.634506e-04 0.000000e+00)	(0.000000e+00 -2.634506e-04 0.000000e+00)	(0.000000e+00 0.000000e+00 0.000000e+00)	(0.000000e+00 7.026144e-04 0.000000e+00)	(0.000000e+00 0.000000e+00 0.000000e+00)
1008.9        	(0.000000e+00 -1.926205e-04 0.000000e+00)	(0.000000e+00 -1.926205e-04 0.000000e+00)	(0.000000e+00 0.000000e+00 0.000000e+00)	(0.000000e+00 7.124198e-04 0.000000e+00)	(0.000000e+00 0.000000e+00 0.000000e+00)
1009          	(0.000000e+00 -1.209666e-04 0.000000e+00)	(0.000000e+00 -1.209666e-04 0.000000e+00)	(0.000000e+00 0.000000e+00 0.000000e+00)	(0.000000e+00 7.190798e-04 0.000000e+00)	(0.000000e+00 0.000000e+00 0.000000e+00)
1009.1        	(0.000000e+00 -4.880449e-05 0.000000e+00)	(0.000000e+00 -4.880449e-05 0.000000e+00)	(0.000000e+00 0.000000e+00 0.000000e+00)	(0.000000e+00 7.225972e-04 0.000000e+00)	(0.000000e+00 0.000000e+00 0.000000e+00)
1009.2        	(0.000000e+00 2.355280e-05 0.000000e+00)	(0.000000e+00 2.355280e-05 0.000000e+00)	(0.000000e+00 0.000000e+00 0.000000e+00)	(0.000000e+00 7.229580e-04 0.000000e+00)	(0.000000e+00 0.000000e+00 0.000000e+00)
1009.3        	(0.000000e+00 9.578712e-05 0.000000e+00)	(0.000000e+00 9.578712e-05 0.000000e+00)	(0.000000e+00 0.000000e+00 0.000000e+00)	(0.000000e+00 7.201410e-04 0.000000e+00)	(0.000000e+00 0.000000e+00 0.000000e+00)
1009.4        	(0.000000e+00 1.675810e-04 0.000000e+00)	(0.000000e+00 1.675810e-04 0.000000e+00)	(0.000000e+00 0.000000e+00 0.000000e+00)	(0.000000e+00 7.141648e-04 0.000000e+00)	(0.000000e+00 0.000000e+00 0.000000e+00)
1009.5        	(0.000000e+00 2.386201e-04 0.000000e+00)	(0.000000e+00 2.386201e-04 0.000000e+00)	(0.000000e+00 0.000000e+00 0.000000e+00)	(0.000000e+00 7.051033e-04 0.000000e+00)	(0.000000e+00 0.000000e+00 0.000000e+00)
1009.6        	(0.000000e+00 3.086016e-04 0.000000e+00)	(0.000000e+00 3.086016e-04 0.000000e+00)	(0.000000e+00 0.000000e+00 0.000000e+00)	(0.000000e+00 6.929837e-04 0.000000e+00)	(0.000000e+00 0.000000e+00 0.000000e+00)
1009.7        	(0.000000e+00 3.772168e-04 0.000000e+00)	(0.000000e+00 3.772168e-04 0.000000e+00)	(0.000000e+00 0.000000e+00 0.000000e+00)	(0.000000e+00 6.778556e-04 0.000000e+00)	(0.000000e+00 0.000000e+00 0.000000e+00)
1009.8        	(0.000000e+00 4.441728e-04 0.000000e+00)	(0.000000e+00 4.441728e-04 0.000000e+00)	(0.000000e+00 0.000000e+00 0.000000e+00)	(0.000000e+00 6.597990e-04 0.000000e+00)	(0.000000e+00 0.000000e+00 0.000000e+00)
1009.9        	(0.000000e+00 5.091766e-04 0.000000e+00)	(0.000000e+00 5.091766e-04 0.000000e+00)	(0.000000e+00 0.000000e+00 0.000000e+00)	(0.000000e+00 6.389164e-04 0.000000e+00)	(0.000000e+00 0.000000e+00 0.000000e+00)
1010          	(0.000000e+00 5.719560e-04 0.000000e+00)	(0.000000e+00 5.719560e-04 0.000000e+00)	(0.000000e+00 0.000000e+00 0.000000e+00)	(0.000000e+00 6.153110e-04 0.000000e+00)	(0.000000e+00 0.000000e+00 0.000000e+00)
1010.1        	(0.000000e+00 6.322388e-04 0.000000e+00)	(0.000000e+00 6.322388e-04 0.000000e+00)	(0.000000e+00 0.000000e+00 0.000000e+00)	(0.000000e+00 5.890578e-04 0.000000e+00)	(0.000000e+00 0.000000e+00 0.000000e+00)
1010.2        	(0.000000e+00 6.897676e-04 0.000000e+00)	(0.000000e+00 6.897676e-04 0.000000e+00)	(0.000000e+00 0.000000e+00 0.000000e+00)	(0.000000e+00 5.602855e-04 0.000000e+00)	(0.000000e+00 0.000000e+00 0.000000e+00)
1010.3        	(0.000000e+00 7.442959e-04 0.000000e+00)	(0.000000e+00 7.442959e-04 0.000000e+00)	(0.000000e+00 0.000000e+00 0.000000e+00)	(0.000000e+00 5.291224e-04 0.000000e+00)	(0.000000e+00 0.000000e+00 0.000000e+00)
1010.4        	(0.000000e+00 7.955921e-04 0.000000e+00)	(0.000000e+00 7.955921e-04 0.000000e+00)	(0.000000e+00 0.000000e+00 0.000000e+00)	(0.000000e+00 4.957070e-04 0.000000e+00)	(0.000000e+00 0.000000e+00 0.000000e+00)
1010.5        	(0.000000e+00 8.434373e-04 0.000000e+00)	(0.000000e+00 8.434373e-04 0.000000e+00)	(0.000000e+00 0.000000e+00 0.000000e+00)	(0.000000e+00 4.601747e-04 0.000000e+00)	(0.000000e+00 0.000000e+00 0.000000e+00)
1010.6        	(0.000000e+00 8.876270e-04 0.000000e+00)	(0.000000e+00 8.876270e-04 0.000000e+00)	(0.000000e+00 0.000000e+00 0.000000e+00)	(0.000000e+00 4.226967e-04 0.000000e+00)	(0.000000e+00 0.000000e+00 0.000000e+00)
1010.7        	(0.000000e+00 9.279767e-04 0.000000e+00)	(0.000000e+00 9.279767e-04 0.000000e+00)	(0.000000e+00 0.000000e+00 0.000000e+00)	(0.000000e+00 3.834346e-04 0.000000e+00)	(0.000000e+00 0.000000e+00 0.000000e+00)
1010.8        	(0.000000e+00 9.643139e-04 0.000000e+00)	(0.000000e+00 9.643139e-04 0.000000e+00)	(0.000000e+00 0.000000e+00 0.000000e+00)	(0.000000e+00 3.425248e-04 0.000000e+00)	(0.000000e+00 0.000000e+00 0.000000e+00)
1010.9        	(0.000000e+00 9.964816e-04 0.000000e+00)	(0.000000e+00 9.964816e-04 0.000000e+00)	(0.000000e+00 0.000000e+00 0.000000e+00)	(0.000000e+00 3.001398e-04 0.000000e+00)	(0.000000e+00 0.000000e+00 0.000000e+00)
1011          	(0.000000e+00 1.024342e-03 0.000000e+00)	(0.000000e+00 1.024342e-03 0.000000e+00)	(0.000000e+00 0.000000e+00 0.000000e+00)	(0.000000e+00 2.564870e-04 0.000000e+00)	(0.000000e+00 0.000000e+00 0.000000e+00)
1011.1        	(0.000000e+00 1.047779e-03 0.000000e+00)	(0.000000e+00 1.047779e-03 0.000000e+00)	(0.000000e+00 0.000000e+00 0.000000e+00)	(0.000000e+00 2.117510e-04 0.000000e+00)	(0.000000e+00 0.000000e+00 0.000000e+00)
1011.2        	(0.000000e+00 1.066692e-03 0.000000e+00)	(0.000000e+00 1.066692e-03 0.000000e+00)	(0.000000e+00 0.000000e+00 0.000000e+00)	(0.000000e+00 1.660908e-04 0.000000e+00)	(0.000000e+00 0.000000e+00 0.000000e+00)
1011.3        	(0.000000e+00 1.080997e-03 0.000000e+00)	(0.000000e+00 1.080997e-03 0.000000e+00)	(0.000000e+00 0.000000e+00 0.000000e+00)	(0.000000e+00 1.196931e-04 0.000000e+00)	(0.000000e+00 0.000000e+00 0.000000e+00)
1011.4        	(0.000000e+00 1.090631e-03 0.000000e+00)	(0.000000e+00 1.090631e-03 0.000000e+00)	(0.000000e+00 0.000000e+00 0.000000e+00)	(0.000000e+00 7.270574e-05 0.000000e+00)	(0.000000e+00 0.000000e+00 0.000000e+00)
1011.5        	(0.000000e+00 1.095538e-03 0.000000e+00)	(0.000000e+00 1.095538e-03 0.000000e+00)	(0.000000e+00 0.000000e+00 0.000000e+00)	(0.000000e+00 2.532009e-05 0.000000e+00)	(0.000000e+00 0.000000e+00 0.000000e+00)
1011.6        	(0.000000e+00 1.095695e-03 0.000000e+00)	(0.000000e+00 1.095695e-03 0.000000e+00)	(0.000000e+00 0.000000e+00 0.000000e+00)	(0.000000e+00 -2.218538e-05 0.000000e+00)	(0.000000e+00 0.000000e+00 0.000000e+00)
1011.7        	(0.000000e+00 1.091101e-03 0.000000e+00)	(0.000000e+00 1.091101e-03 0.000000e+00)	(0.000000e+00 0.000000e+00 0.000000e+00)	(0.000000e+00 -6.960730e-05 0.000000e+00)	(0.000000e+00 0.000000e+00 0.000000e+00)
1011.8        	(0.000000e+00 1.081773e-03 0.000000e+00)	(0.000000e+00 1.081773e-03 0.000000e+00)	(0.000000e+00 0.000000e+00 0.000000e+00)	(0.000000e+00 -1.167688e-04 0.000000e+00)	(0.000000e+00 0.000000e+00 0.000000e+00)
1011.9        	(0.000000e+00 1.067748e-03 0.000000e+00)	(0.000000e+00 1.067748e-03 0.000000e+00)	(0.000000e+00 0.000000e+00 0.000000e+00)	(0.000000e+00 -1.634440e-04 0.000000e+00)	(0.000000e+00 0.000000e+00 0.000000e+00)
1012          	(0.000000e+00 1.049084e-03 0.000000e+00)	(0.000000e+00 1.049084e-03 0.000000e+00)	(0.000000e+00 0.000000e+00 0.000000e+00)	(0.000000e+00 -2.094868e-04 0.000000e+00)	(0.000000e+00 0.000000e+00 0.000000e+00)
1012.1        	(0.000000e+00 1.025850e-03 0.000000e+00)	(0.000000e+00 1.025850e-03 0.000000e+00)	(0.000000e+00 0.000000e+00 0.000000e+00)	(0.000000e+00 -2.547322e-04 0.000000e+00)	(0.000000e+00 0.000000e+00 0.000000e+00)
1012.2        	(0.000000e+00 9.981380e-04 0.000000e+00)	(0.000000e+00 9.981380e-04 0.000000e+00)	(0.000000e+00 0.000000e+00 0.000000e+00)	(0.000000e+00 -2.988936e-04 0.000000e+00)	(0.000000e+00 0.000000e+00 0.000000e+00)
1012.3        	(0.000000e+00 9.660714e-04 0.000000e+00)	(0.000000e+00 9.660714e-04 0.000000e+00)	(0.000000e+00 0.000000e+00 0.000000e+00)	(0.000000e+00 -3.417396e-04 0.000000e+00)	(0.000000e+00 0.000000e+00 0.000000e+00)
1012.4        	(0.000000e+00 9.297901e-04 0.000000e+00)	(0.000000e+00 9.297901e-04 0.000000e+00)	(0.000000e+00 0.000000e+00 0.000000e+00)	(0.000000e+00 -3.831260e-04 0.000000e+00)	(0.000000e+00 0.000000e+00 0.000000e+00)
1012.5        	(0.000000e+00 8.894462e-04 0.000000e+00)	(0.000000e+00 8.894462e-04 0.000000e+00)	(0.000000e+00 0.000000e+00 0.000000e+00)	(0.000000e+00 -4.228879e-04 0.000000e+00)	(0.000000e+00 0.000000e+00 0.000000e+00)
1012.6        	(0.000000e+00 8.452125e-04 0.000000e+00)	(0.000000e+00 8.452125e-04 0.000000e+00)	(0.000000e+00 0.000000e+00 0.000000e+00)	(0.000000e+00 -4.608311e-04 0.000000e+00)	(0.000000e+00 0.000000e+00 0.000000e+00)
1012.7        	(0.000000e+00 7.972800e-04 0.000000e+00)	(0.000000e+00 7.972800e-04 0.000000e+00)	(0.000000e+00 0.000000e+00 0.000000e+00)	(0.000000e+00 -4.967788e-04 0.000000e+00)	(0.000000e+00 0.000000e+00 0.000000e+00)
1012.8        	(0.000000e+00 7.458568e-04 0.000000e+00)	(0.000000e+00 7.458568e-04 0.000000e+00)	(0.000000e+00 0.000000e+00 0.000000e+00)	(0.000000e+00 -5.305745e-04 0.000000e+00)	(0.000000e+00 0.000000e+00 0.000000e+00)
1012.9        	(0.000000e+00 6.911651e-04 0.000000e+00)	(0.000000e+00 6.911651e-04 0.000000e+00)	(0.000000e+00 0.000000e+00 0.000000e+00)	(0.000000e+00 -5.620473e-04 0.000000e+00)	(0.000000e+00 0.000000e+00 0.000000e+00)
1013          	(0.000000e+00 6.334473e-04 0.000000e+00)	(0.000000e+00 6.334473e-04 0.000000e+00)	(0.000000e+00 0.000000e+00 0.000000e+00)	(0.000000e+00 -5.910454e-04 0.000000e+00)	(0.000000e+00 0.000000e+00 0.000000e+00)
1013.1        	(0.000000e+00 5.729560e-04 0.000000e+00)	(0.000000e+00 5.729560e-04 0.000000e+00)	(0.000000e+00 0.000000e+00 0.000000e+00)	(0.000000e+00 -6.174381e-04 0.000000e+00)	(0.000000e+00 0.000000e+00 0.000000e+00)
1013.2        	(0.000000e+00 5.099597e-04 0.000000e+00)	(0.000000e+00 5.099597e-04 0.000000e+00)	(0.000000e+00 0.000000e+00 0.000000e+00)	(0.000000e+00 -6.410833e-04 0.000000e+00)	(0.000000e+00 0.000000e+00 0.000000e+00)
1013.3        	(0.000000e+00 4.447394e-04 0.000000e+00)	(0.000000e+00 4.447394e-04 0.000000e+00)	(0.000000e+00 0.000000e+00 0.000000e+00)	(0.000000e+00 -6.618932e-04 0.000000e+00)	(0.000000e+00 0.000000e+00 0.000000e+00)
1013.4        	(0.000000e+00 3.775810e-04 0.000000e+00)	(0.000000e+00 3.775810e-04 0.000000e+00)	(0.000000e+00 0.000000e+00 0.000000e+00)	(0.000000e+00 -6.797990e-04 0.000000e+00)	(0.000000e+00 0.000000e+00 0.000000e+00)