# Forces      
# CofR        : (0.000000e+00 0.000000e+00 0.000000e+00)
# Time        forces(pressure viscous)	moments(pressure viscous)
0             	((0.000000e+00 0.000000e+00 0.000000e+00) (8.081301e+00 -1.647987e-15 3.009266e-36)) ((0.000000e+00 0.000000e+00 0.000000e+00) (1.157608e-21 7.417250e-21 -6.938894e-18))
0.1           	((1.535006e+01 -5.896647e-06 5.356694e-25) (2.782946e+00 6.246833e-07 -5.661013e-21)) ((4.018835e-21 -2.020026e-25 2.912582e-12) (4.806511e-23 2.047590e-20 -1.570802e-07))
0.2           	((-4.190495e+00 5.236879e-06 6.082429e-25) (1.453266e+00 5.643185e-07 -3.599647e-21)) ((-8.010208e-22 2.361833e-25 -1.056383e-12) (-2.487898e-21 -5.159022e-21 -1.799266e-07))
0.3           	((4.009677e-01 3.993095e-06 -6.826217e-21) (1.046370e+00 5.513330e-07 4.094577e-21)) ((1.614389e-20 -3.282798e-21 1.788779e-10) (-5.199374e-21 3.934700e-21 -1.739621e-07))
0.4           	((3.820646e-01 3.873475e-06 2.794075e-21) (8.527082e-01 5.218941e-07 -2.204247e-21)) ((-2.476709e-20 2.650505e-21 1.501584e-10) (7.600292e-21 -1.936827e-21 -1.651436e-07))
0.5           	((3.660485e-01 3.966741e-06 8.682220e-22) (7.352846e-01 5.202722e-07 -7.453977e-23)) ((-2.906153e-21 1.092224e-21 -1.978496e-11) (-9.465774e-22 1.195466e-21 -1.565738e-07))
0.6           	((3.529404e-01 4.005565e-06 -2.447963e-21) (6.552662e-01 5.227693e-07 2.053813e-21)) ((1.488835e-20 -1.198890e-21 -3.090031e-10) (-5.198993e-21 2.751708e-21 -1.505622e-07))
0.7           	((3.446279e-01 4.081756e-06 -2.439573e-21) (5.966305e-01 5.285564e-07 2.064689e-21)) ((1.440542e-20 -1.159169e-21 -7.120035e-10) (-5.167605e-21 2.670372e-21 -1.463495e-07))
0.8           	((3.400162e-01 4.089494e-06 3.416942e-21) (5.514374e-01 5.367172e-07 -4.409500e-21)) ((1.452795e-20 2.418340e-21 -1.227525e-09) (-5.098847e-21 -6.363221e-22 -1.433915e-07))
0.9           	((3.381666e-01 4.047445e-06 -3.853869e-21) (5.153100e-01 5.455970e-07 1.702556e-21)) ((2.338339e-21 -9.410151e-22 -1.856738e-09) (-2.575536e-21 3.744940e-22 -1.413633e-07))
1             	((3.384334e-01 3.996069e-06 -4.550394e-21) (4.856361e-01 5.548901e-07 1.859599e-21)) ((2.251122e-20 3.514599e-21 -2.598765e-09) (-7.973205e-21 -1.518122e-21 -1.400469e-07))
1.1           	((3.404106e-01 3.919226e-06 -7.662783e-21) (4.607545e-01 5.642003e-07 1.975940e-21)) ((-5.531881e-21 -4.238277e-21 -3.450866e-09) (1.391865e-22 1.111618e-21 -1.392516e-07))
1.2           	((3.437464e-01 3.824069e-06 -9.831751e-22) (4.395501e-01 5.734194e-07 -3.113992e-21)) ((1.513573e-21 1.608629e-22 -4.408114e-09) (-2.125078e-21 -6.589468e-22 -1.388079e-07))
1.3           	((3.481245e-01 3.699890e-06 1.910034e-21) (4.212407e-01 5.823798e-07 -2.241756e-21)) ((3.089405e-21 -4.757123e-21 -5.461979e-09) (-2.613034e-21 6.422546e-22 -1.385779e-07))
1.4           	((3.532855e-01 3.555858e-06 -5.945235e-21) (4.052590e-01 5.909300e-07 -6.603530e-22)) ((-1.775587e-20 2.511640e-21 -6.600312e-09) (4.393400e-21 -2.513842e-21 -1.384935e-07))
1.5           	((3.590172e-01 3.382018e-06 -7.397721e-21) (3.911815e-01 5.985055e-07 4.347400e-21)) ((-8.926822e-21 -2.853186e-21 -7.806973e-09) (7.776260e-22 2.602919e-21 -1.387008e-07))
1.6           	((3.651286e-01 3.173655e-06 -4.959684e-21) (3.786845e-01 6.046175e-07 -6.430452e-22)) ((1.159500e-22 -2.161943e-21 -9.061765e-09) (-1.710885e-21 -5.916145e-22 -1.391262e-07))
1.7           	((3.714889e-01 2.960211e-06 7.631194e-21) (3.675155e-01 6.096080e-07 -5.380414e-21)) ((-2.989061e-20 2.755186e-21 -1.034142e-08) (7.738955e-21 -2.554022e-21 -1.396643e-07))
1.8           	((3.780133e-01 2.720160e-06 -1.070844e-20) (3.574743e-01 6.130954e-07 2.025453e-21)) ((-1.813269e-20 6.940110e-22 -1.162002e-08) (4.422068e-21 -1.397843e-21 -1.402383e-07))
1.9           	((3.846414e-01 2.480119e-06 2.791732e-22) (3.484002e-01 6.150132e-07 -1.381511e-21)) ((8.713030e-21 -2.192328e-22 -1.287020e-08) (-3.881573e-21 -1.129641e-21 -1.407779e-07))
2             	((3.913400e-01 2.220329e-06 -4.228116e-21) (3.401621e-01 6.151694e-07 4.363558e-22)) ((-9.949215e-21 -2.097739e-21 -1.406330e-08) (1.450276e-21 -1.942658e-23 -1.412114e-07))
2.1           	((3.981247e-01 1.968659e-06 5.655634e-22) (3.326527e-01 6.136171e-07 5.675867e-22)) ((6.846683e-21 1.609031e-21 -1.517191e-08) (-3.737653e-21 5.985627e-22 -1.414527e-07))
2.2           	((4.049955e-01 1.725711e-06 -4.262923e-21) (3.257831e-01 6.103001e-07 1.692605e-22)) ((-2.989686e-20 -2.043425e-21 -1.616756e-08) (7.934693e-21 1.213213e-21 -1.414060e-07))
2.3           	((4.119485e-01 1.493642e-06 -4.531396e-21) (3.194786e-01 6.050526e-07 3.921481e-21)) ((-1.228750e-20 -3.687690e-22 -1.702247e-08) (1.762606e-21 5.900963e-22 -1.409716e-07))
2.4           	((4.189782e-01 1.278495e-06 1.652886e-20) (3.136763e-01 5.979743e-07 -8.439580e-21)) ((-1.075329e-21 -8.363546e-22 -1.771018e-08) (-1.775957e-21 2.700439e-22 -1.400514e-07))
2.5           	((4.260824e-01 1.083471e-06 3.235139e-21) (3.083223e-01 5.890756e-07 -4.446664e-21)) ((4.774130e-21 7.909525e-22 -1.820628e-08) (-3.213558e-21 -1.937229e-21 -1.385539e-07))
2.6           	((4.332311e-01 9.069425e-07 3.245988e-21) (3.033700e-01 5.783242e-07 -3.887094e-21)) ((-1.358881e-20 8.814679e-22 -1.848787e-08) (2.120417e-21 -1.450432e-21 -1.363967e-07))
2.7           	((4.403847e-01 7.444638e-07 -9.698100e-21) (2.987786e-01 5.656635e-07 2.681678e-21)) ((-3.095794e-20 -3.924999e-21 -1.853504e-08) (8.156659e-21 2.010345e-21 -1.335137e-07))
2.8           	((4.475070e-01 5.932636e-07 -1.812979e-20) (2.945122e-01 5.510657e-07 4.967153e-21)) ((1.758633e-20 -4.286827e-22 -1.833194e-08) (-6.813620e-21 -8.110548e-22 -1.298556e-07))
2.9           	((4.545479e-01 4.501822e-07 -1.289184e-20) (2.905395e-01 5.344722e-07 2.481540e-21)) ((1.736720e-20 1.456680e-21 -1.786657e-08) (-6.742382e-21 -1.678289e-21 -1.253917e-07))
3             	((4.615016e-01 3.241942e-07 1.585826e-23) (2.868287e-01 5.158294e-07 -2.196950e-21)) ((3.934492e-21 7.223256e-23 -1.713343e-08) (-2.727137e-21 -4.054317e-22 -1.201570e-07))
3.1           	((4.682846e-01 1.896927e-07 -5.699071e-21) (2.833584e-01 4.951824e-07 -3.201399e-22)) ((-1.395662e-20 -1.714319e-21 -1.612916e-08) (2.488824e-21 -6.380082e-23 -1.141354e-07))
3.2           	((4.749115e-01 6.252079e-08 -5.869205e-21) (2.801052e-01 4.725542e-07 4.795023e-21)) ((-1.539993e-20 1.659672e-22 -1.485969e-08) (2.595092e-21 2.665014e-22 -1.073874e-07))
3.3           	((4.813483e-01 -6.030205e-08 1.323332e-21) (2.770487e-01 4.481267e-07 -2.424133e-21)) ((-1.449258e-20 -6.565510e-22 -1.333384e-08) (2.759766e-21 1.947570e-22 -9.998746e-08))
3.4           	((4.875837e-01 -1.753495e-07 9.232775e-21) (2.741710e-01 4.221014e-07 -6.387893e-21)) ((-2.139261e-20 3.654863e-21 -1.156647e-08) (4.689067e-21 -1.063022e-21 -9.201837e-08))
3.5           	((4.936209e-01 -2.837420e-07 -1.042921e-20) (2.714553e-01 3.946139e-07 2.972283e-21)) ((-3.238000e-20 -3.734171e-21 -9.577581e-09) (8.488758e-21 1.823020e-21 -8.360340e-08))
3.6           	((4.994421e-01 -3.823743e-07 -1.690524e-20) (2.688881e-01 3.661036e-07 7.391706e-21)) ((-4.097976e-21 -4.468185e-21 -7.391436e-09) (-1.010994e-21 2.879728e-21 -7.483392e-08))
3.7           	((5.050622e-01 -4.771686e-07 2.704057e-20) (2.664569e-01 3.367835e-07 -1.390894e-20)) ((-3.083603e-21 -9.952338e-22 -5.037094e-09) (-1.360156e-21 3.923811e-22 -6.582838e-08))
3.8           	((5.103454e-01 -5.680994e-07 6.233403e-21) (2.641560e-01 3.073648e-07 -4.970797e-21)) ((-3.307977e-20 1.587176e-21 -2.546485e-09) (8.549854e-21 -1.290958e-21 -5.661972e-08))
3.9           	((5.155879e-01 -6.445304e-07 1.750474e-20) (2.619696e-01 2.777059e-07 -1.065415e-20)) ((-3.472605e-20 3.185776e-21 4.285063e-11) (8.568657e-21 -2.032023e-21 -4.741248e-08))
4             	((5.206485e-01 -7.118526e-07 4.025877e-21) (2.598889e-01 2.481113e-07 -1.780423e-21)) ((-1.996760e-21 -5.987099e-21 2.694559e-09) (-1.256596e-21 2.931786e-22 -3.832002e-08))
4.1           	((5.254855e-01 -7.908572e-07 -1.110838e-20) (2.579056e-01 2.185894e-07 4.235051e-21)) ((-2.001547e-20 6.577115e-21 5.368220e-09) (4.125493e-21 -2.935095e-21 -2.944567e-08))
4.2           	((5.301699e-01 -8.337072e-07 1.441624e-22) (2.560129e-01 1.897792e-07 -4.158756e-21)) ((-3.224842e-21 -1.330176e-21 8.022973e-09) (-8.860282e-22 -8.183093e-22 -2.088403e-08))
4.3           	((5.347104e-01 -8.869779e-07 1.918653e-20) (2.542054e-01 1.618171e-07 -9.204650e-21)) ((-2.267119e-21 -4.240907e-21 1.061847e-08) (-1.077873e-21 1.043486e-21 -1.271685e-08))
4.4           	((5.390342e-01 -9.340001e-07 -1.089006e-20) (2.524762e-01 1.346753e-07 1.043684e-21)) ((-3.147548e-21 -5.018209e-21 1.311138e-08) (-7.855799e-22 1.519557e-21 -5.014714e-09))
4.5           	((5.431569e-01 -9.748251e-07 -2.293084e-20) (2.508197e-01 1.086252e-07 9.744868e-21)) ((-2.026420e-20 3.288888e-21 1.546139e-08) (4.033776e-21 -7.233593e-22 2.166284e-09))
4.6           	((5.470783e-01 -1.013730e-06 -1.117826e-20) (2.492307e-01 8.374446e-08 2.122866e-21)) ((-1.782622e-20 -3.570974e-21 1.762972e-08) (3.683238e-21 1.280751e-21 8.782570e-09))
4.7           	((5.508396e-01 -1.039849e-06 -6.744301e-21) (2.477056e-01 6.019315e-08 5.343227e-22)) ((-2.457050e-21 -1.375961e-21 1.958158e-08) (-1.031473e-21 -1.564104e-21 1.480286e-08))
4.8           	((5.543607e-01 -1.064064e-06 1.893029e-20) (2.462391e-01 3.811715e-08 -1.226629e-20)) ((-2.016842e-20 2.638034e-21 2.128137e-08) (3.763693e-21 -4.919555e-22 2.020756e-08))
4.9           	((5.577044e-01 -1.089912e-06 -6.833485e-21) (2.448274e-01 1.745330e-08 5.808544e-22)) ((-3.059274e-21 -1.337272e-21 2.270193e-08) (-8.712784e-22 -1.595420e-21 2.499073e-08))
5             	((5.607900e-01 -1.100236e-06 -1.917568e-20) (2.434662e-01 -1.651536e-09 9.112648e-21)) ((-2.057943e-20 -2.540835e-21 2.381513e-08) (3.875014e-21 2.392990e-21 2.915486e-08))
5.1           	((5.637462e-01 -1.110868e-06 1.906300e-20) (2.421533e-01 -1.917528e-08 -1.015909e-20)) ((9.763690e-21 4.203306e-21 2.460676e-08) (-5.317147e-21 -4.222957e-22 3.271197e-08))
5.2           	((5.665371e-01 -1.117057e-06 -1.141763e-20) (2.408860e-01 -3.518028e-08 3.419780e-21)) ((-3.645513e-21 -3.412675e-21 2.506055e-08) (-5.958744e-22 1.495727e-21 3.568117e-08))
5.3           	((5.691690e-01 -1.120961e-06 -4.531161e-21) (2.396620e-01 -4.965248e-08 8.105558e-22)) ((-1.914757e-20 -2.248133e-21 2.516773e-08) (4.088396e-21 -1.810416e-22 3.808782e-08))
5.4           	((5.715934e-01 -1.117366e-06 1.260708e-20) (2.384779e-01 -6.250605e-08 -9.519942e-21)) ((-2.127223e-20 1.178334e-21 2.492277e-08) (4.086676e-21 2.287958e-22 3.996178e-08))
5.5           	((5.738859e-01 -1.110538e-06 1.029755e-20) (2.373321e-01 -7.381222e-08 -7.292641e-21)) ((-2.127773e-20 2.331453e-21 2.433147e-08) (4.188905e-21 -1.440724e-21 4.133772e-08))
5.6           	((5.759599e-01 -1.105846e-06 2.362602e-21) (2.362219e-01 -8.375848e-08 -2.592919e-21)) ((-3.432869e-20 -1.246429e-21 2.339827e-08) (8.869754e-21 -7.884118e-22 4.225165e-08))
5.7           	((5.778542e-01 -1.088611e-06 -7.103150e-21) (2.351437e-01 -9.212518e-08 7.258482e-22)) ((-3.447797e-20 -1.217114e-21 2.213877e-08) (8.762209e-21 -1.670901e-21 4.275008e-08))
5.8           	((5.795954e-01 -1.074250e-06 1.639235e-20) (2.340972e-01 -9.908804e-08 -7.296427e-21)) ((1.054351e-20 2.968562e-21 2.057362e-08) (-4.980337e-21 -9.198558e-22 4.286747e-08))
5.9           	((5.812421e-01 -1.055820e-06 -3.202893e-20) (2.330810e-01 -1.047112e-07 1.372621e-20)) ((9.169490e-21 2.959668e-21 1.872887e-08) (-5.240639e-21 -4.499497e-22 4.264506e-08))
6             	((5.827067e-01 -1.032355e-06 3.247199e-21) (2.320938e-01 -1.089965e-07 -5.771483e-21)) ((-3.607436e-20 1.115160e-21 1.663051e-08) (8.826210e-21 -1.676074e-21 4.212349e-08))
6.1           	((5.840261e-01 -1.007164e-06 -4.509948e-21) (2.311328e-01 -1.120487e-07 2.549835e-22)) ((-5.528229e-21 -2.198256e-21 1.431307e-08) (-4.264746e-23 8.442815e-22 4.134252e-08))
6.2           	((5.852195e-01 -9.830108e-07 -1.988786e-20) (2.301978e-01 -1.139668e-07 1.024530e-20)) ((-6.326045e-21 -4.058033e-21 1.181367e-08) (-5.102152e-22 1.788577e-21 4.036548e-08))
6.3           	((5.862669e-01 -9.536984e-07 1.744084e-20) (2.292874e-01 -1.147461e-07 -1.017627e-20)) ((8.173526e-21 5.368004e-21 9.171538e-09) (-4.812739e-21 -1.294064e-21 3.920406e-08))
6.4           	((5.871552e-01 -9.286427e-07 -6.958667e-21) (2.283998e-01 -1.145848e-07 9.608234e-22)) ((-4.636729e-21 -3.033344e-21 6.428881e-09) (-4.824609e-22 -1.054316e-21 3.789331e-08))
6.5           	((5.879344e-01 -8.986111e-07 -1.548384e-20) (2.275337e-01 -1.135365e-07 6.687232e-21)) ((-6.171056e-21 -1.800684e-21 3.630022e-09) (-4.496027e-22 1.338498e-21 3.646646e-08))
6.6           	((5.886057e-01 -8.660352e-07 2.520732e-20) (2.266882e-01 -1.116207e-07 -1.169570e-20)) ((-5.916108e-21 -4.283313e-21 8.194683e-10) (-6.425616e-22 1.164706e-21 3.495584e-08))
6.7           	((5.891826e-01 -8.335059e-07 3.495998e-23) (2.258626e-01 -1.089376e-07 -1.763589e-21)) ((-3.428486e-20 5.386951e-23 -1.958368e-09) (8.697422e-21 -9.827428e-22 3.339141e-08))
6.8           	((5.896784e-01 -7.955998e-07 -1.559557e-20) (2.250563e-01 -1.054859e-07 6.735946e-21)) ((-6.255663e-21 -1.806484e-21 -4.659970e-09) (-4.181679e-22 1.326618e-21 3.180119e-08))
6.9           	((5.901375e-01 -7.654922e-07 2.525415e-20) (2.242697e-01 -1.015251e-07 -1.172488e-20)) ((-6.002055e-21 -4.298913e-21 -7.243702e-09) (-6.098195e-22 1.175207e-21 3.020964e-08))
7             	((5.904684e-01 -7.335971e-07 2.035562e-20) (2.235011e-01 -9.715384e-08 -1.270696e-20)) ((-3.596492e-20 2.003661e-21 -9.668649e-09) (8.643492e-21 -1.175152e-21 2.864157e-08))
7.1           	((5.906618e-01 -7.041825e-07 -4.510878e-21) (2.227486e-01 -9.249171e-08 2.902566e-22)) ((-6.747398e-21 -2.203089e-21 -1.189630e-08) (3.270528e-22 7.810090e-22 2.712180e-08))
7.2           	((5.908057e-01 -6.669681e-07 1.311238e-20) (2.220121e-01 -8.747550e-08 -9.359699e-21)) ((-3.586063e-20 9.304239e-22 -1.389373e-08) (8.635248e-21 -6.605580e-22 2.566580e-08))
7.3           	((5.908746e-01 -6.368667e-07 -2.038809e-20) (2.212913e-01 -8.236834e-08 1.099739e-20)) ((-8.968523e-21 -1.992167e-21 -1.562988e-08) (3.096846e-22 2.309229e-21 2.429051e-08))
7.4           	((5.908139e-01 -6.069673e-07 1.735928e-26) (2.205842e-01 -7.716504e-08 -1.139288e-21)) ((-2.090100e-20 4.206242e-27 -1.707725e-08) (4.535141e-21 -2.012095e-21 2.300888e-08))
7.5           	((5.907428e-01 -5.697701e-07 -2.524517e-20) (2.198918e-01 -7.187922e-08 1.058437e-20)) ((-1.909251e-20 4.220471e-21 -1.821763e-08) (3.489302e-21 -1.003410e-21 2.183468e-08))
7.6           	((5.905911e-01 -5.396337e-07 -2.388538e-20) (2.192136e-01 -6.560039e-08 6.604145e-21)) ((-1.698338e-20 1.880315e-21 -1.903264e-08) (3.502990e-21 -1.532742e-21 2.062354e-08))
7.7           	((5.903803e-01 -5.041003e-07 -2.042786e-20) (2.185481e-01 -5.972297e-08 9.657986e-21)) ((-2.269809e-20 -2.043436e-21 -1.951220e-08) (4.525727e-21 2.089074e-21 1.957659e-08))
7.8           	((5.901375e-01 -4.646308e-07 -7.271944e-21) (2.178955e-01 -5.404568e-08 2.967051e-22)) ((-2.091178e-20 -1.058254e-21 -1.965167e-08) (4.532728e-21 -7.457162e-22 1.869218e-08))
7.9           	((5.898417e-01 -4.361317e-07 -8.605386e-21) (2.172558e-01 -4.896184e-08 6.545905e-21)) ((-2.242309e-20 1.263944e-21 -1.945063e-08) (4.579692e-21 -4.124011e-22 1.796546e-08))
8             	((5.895346e-01 -4.075855e-07 1.049310e-20) (2.166287e-01 -4.426275e-08 -8.824559e-21)) ((-9.292174e-21 2.239664e-21 -1.891636e-08) (5.580774e-22 -1.588313e-21 1.739125e-08))
8.1           	((5.891754e-01 -3.745806e-07 -1.313690e-20) (2.160134e-01 -3.998625e-08 8.225605e-21)) ((-2.267134e-20 -9.961798e-22 -1.805822e-08) (4.557617e-21 8.238608e-22 1.696266e-08))
8.2           	((5.887974e-01 -3.452221e-07 -1.291453e-21) (2.154100e-01 -3.619744e-08 2.256294e-21)) ((-3.491252e-20 2.361794e-21 -1.689311e-08) (8.478653e-21 -5.145522e-22 1.666949e-08))
8.3           	((5.884003e-01 -3.105927e-07 -2.038202e-20) (2.148184e-01 -3.285867e-08 9.652384e-21)) ((-2.264461e-20 -2.064037e-21 -1.544191e-08) (4.536867e-21 2.089067e-21 1.650452e-08))
8.4           	((5.879363e-01 -2.882436e-07 1.324660e-26) (2.142373e-01 -3.019355e-08 -3.050242e-21)) ((-2.085043e-20 5.352660e-27 -1.372868e-08) (4.562363e-21 -1.253641e-21 1.645718e-08))
8.5           	((5.875136e-01 -2.628064e-07 -1.280286e-21) (2.136669e-01 -2.795866e-08 2.252569e-21)) ((-3.469965e-20 2.349863e-21 -1.178564e-08) (8.425648e-21 -5.177430e-22 1.651553e-08))
8.6           	((5.869287e-01 -2.323911e-07 -2.030514e-20) (2.131076e-01 -2.629552e-08 1.098129e-20)) ((-3.489553e-20 -2.032698e-21 -9.641334e-09) (8.360109e-21 2.279466e-21 1.667193e-08))
8.7           	((5.863802e-01 -2.112883e-07 -7.277128e-21) (2.125574e-01 -2.510880e-08 8.813664e-22)) ((-7.945113e-21 -1.113509e-21 -7.335734e-09) (5.925238e-22 -1.685957e-21 1.690802e-08))
8.8           	((5.857483e-01 -1.835828e-07 -8.536512e-21) (2.120181e-01 -2.447270e-08 6.511145e-21)) ((-2.228848e-20 1.221576e-21 -4.905734e-09) (4.580726e-21 -3.906744e-22 1.720767e-08))
8.9           	((5.852010e-01 -1.569065e-07 2.042273e-20) (2.114883e-01 -2.430050e-08 -1.076715e-20)) ((-1.882369e-20 4.275601e-21 -2.392845e-09) (3.464419e-21 -5.374593e-22 1.755592e-08))
9             	((5.846299e-01 -1.318337e-07 2.468032e-20) (2.109680e-01 -2.454433e-08 -1.340709e-20)) ((-6.089990e-21 -4.030728e-21 1.627261e-10) (-4.919292e-22 1.819895e-21 1.793765e-08))
9.1           	((5.840217e-01 -1.190603e-07 4.378538e-21) (2.104565e-01 -2.532248e-08 -3.259400e-21)) ((-4.315726e-21 -6.127522e-21 2.718839e-09) (-5.073143e-22 8.052449e-22 1.833646e-08))
9.2           	((5.834269e-01 -9.848398e-08 1.042008e-20) (2.099541e-01 -2.640201e-08 -8.738743e-21)) ((-9.666654e-21 2.278583e-21 5.233881e-09) (7.228779e-22 -1.593000e-21 1.873540e-08))
9.3           	((5.828195e-01 -7.958306e-08 2.021950e-20) (2.094608e-01 -2.771289e-08 -1.312680e-20)) ((-2.244096e-20 2.133109e-21 7.667475e-09) (4.522858e-21 -2.648416e-22 1.912009e-08))
9.4           	((5.821943e-01 -5.893120e-08 3.203168e-21) (2.089760e-01 -2.928997e-08 -5.736543e-21)) ((-3.417887e-20 1.208399e-21 9.980197e-09) (8.302857e-21 -1.642113e-21 1.947526e-08))
9.5           	((5.815602e-01 -4.071223e-08 -2.014538e-20) (2.084995e-01 -3.102025e-08 1.091754e-20)) ((-3.429475e-20 -2.103409e-21 1.213495e-08) (8.213826e-21 2.285759e-21 1.978615e-08))
9.6           	((5.809465e-01 -2.928397e-08 -2.054492e-22) (2.080315e-01 -3.297746e-08 -2.184265e-21)) ((-4.900285e-21 -2.141757e-21 1.409777e-08) (-2.999159e-22 -1.516297e-21 2.004018e-08))
9.7           	((5.803209e-01 -5.159529e-09 1.230404e-26) (2.075717e-01 -3.479883e-08 -3.017278e-21)) ((-2.058362e-20 6.123197e-27 1.583666e-08) (4.536441e-21 -1.256878e-21 2.022520e-08))
9.8           	((5.797048e-01 2.548570e-08 -1.140398e-20) (2.071201e-01 -3.634181e-08 1.038037e-21)) ((8.106720e-21 4.909527e-21 1.732479e-08) (-4.274002e-21 -3.683562e-21 2.033244e-08))
9.9           	((5.790844e-01 3.125121e-08 -7.206898e-21) (2.066766e-01 -3.806420e-08 8.627843e-22)) ((-8.197514e-21 -1.134187e-21 1.853780e-08) (7.139195e-22 -1.645876e-21 2.035156e-08))
10            	((5.784641e-01 4.754726e-08 -2.303018e-20) (2.062408e-01 -3.961517e-08 6.377635e-21)) ((8.302748e-21 1.545901e-21 1.945592e-08) (-4.221916e-21 -1.381061e-21 2.027523e-08))
10.1          	((5.778425e-01 6.566928e-08 -7.159182e-21) (2.058127e-01 -4.084055e-08 2.164999e-21)) ((-2.048837e-20 -1.092536e-21 2.006512e-08) (4.501422e-21 -1.474959e-21 2.009759e-08))
10.2          	((5.772213e-01 8.601645e-08 3.190470e-21) (2.053921e-01 -4.169670e-08 -5.689254e-21)) ((-9.847972e-21 1.221675e-21 2.035588e-08) (8.207869e-22 -1.644094e-21 1.981547e-08))
10.3          	((5.766002e-01 9.847778e-08 -1.124313e-20) (2.049788e-01 -4.224178e-08 9.930617e-22)) ((-1.577914e-20 4.840341e-21 2.032354e-08) (3.122887e-21 -3.648554e-21 1.942617e-08))
10.4          	((5.759793e-01 1.165976e-07 1.283111e-20) (2.045727e-01 -4.239498e-08 -9.097651e-21)) ((-1.002161e-20 1.081979e-21 1.996846e-08) (7.760521e-22 -7.053315e-22 1.893159e-08))
10.5          	((5.753627e-01 1.325208e-07 7.169972e-21) (2.041735e-01 -4.203164e-08 -5.000024e-21)) ((-3.189122e-20 1.146266e-21 1.929659e-08) (8.056114e-21 -1.617628e-21 1.833317e-08))
10.6          	((5.747455e-01 1.376157e-07 -3.521493e-23) (2.037809e-01 -4.034402e-08 -2.448168e-21)) ((-8.304284e-21 -4.479648e-23 1.831824e-08) (7.937938e-22 -2.142130e-21 1.785344e-08))
10.7          	((5.741254e-01 1.498745e-07 1.108246e-20) (2.033953e-01 -3.830400e-08 -6.397092e-21)) ((-4.212181e-21 -4.830963e-21 1.704876e-08) (-4.522828e-22 2.302246e-22 1.725999e-08))
10.8          	((5.735100e-01 1.675498e-07 -1.141921e-21) (2.030162e-01 -3.571988e-08 2.180136e-21)) ((-3.318353e-20 2.242525e-21 1.550877e-08) (8.052954e-21 -5.093868e-22 1.656053e-08))
10.9          	((5.729021e-01 1.872225e-07 1.075382e-20) (2.026435e-01 -3.252458e-08 -7.210771e-21)) ((5.452595e-21 4.592465e-21 1.372258e-08) (-3.843962e-21 -1.628094e-21 1.576959e-08))
11            	((5.723065e-01 1.808694e-07 2.130805e-20) (2.022773e-01 -2.934121e-08 -1.248445e-20)) ((-5.780975e-21 -2.400849e-21 1.171802e-08) (-3.901303e-22 7.234888e-22 1.490147e-08))
11.1          	((5.717158e-01 2.002147e-07 -1.987337e-20) (2.019174e-01 -2.547804e-08 1.132495e-20)) ((-2.198327e-20 -2.284931e-21 9.525877e-09) (4.461763e-21 1.439215e-21 1.397033e-08))
11.2          	((5.711368e-01 2.087944e-07 3.209187e-21) (2.015638e-01 -2.112806e-08 -4.351276e-21)) ((-2.181414e-20 1.280837e-21 7.181378e-09) (4.540743e-21 -1.500833e-21 1.299075e-08))
11.3          	((5.705641e-01 2.175092e-07 -3.850017e-21) (2.012164e-01 -1.638740e-08 -2.370509e-21)) ((-1.535594e-20 5.827116e-21 4.720561e-09) (3.005041e-21 -4.110994e-21 1.197819e-08))
11.4          	((5.699968e-01 2.258895e-07 2.116150e-20) (2.008749e-01 -1.119824e-08 -1.240421e-20)) ((-5.747649e-21 -2.336014e-21 2.181826e-09) (-3.848264e-22 6.920850e-22 1.094752e-08))
11.5          	((5.694415e-01 2.305895e-07 7.076405e-21) (2.005393e-01 -5.707713e-09 -4.959606e-21)) ((-8.391558e-21 1.122468e-21 -3.953116e-10) (8.299011e-22 -1.625335e-21 9.914450e-09))
11.6          	((5.688965e-01 2.342014e-07 -7.071046e-21) (2.002098e-01 9.623949e-11 3.082947e-22)) ((-2.013820e-20 -1.124453e-21 -2.970896e-09) (4.447304e-21 -7.217692e-22 8.894460e-09))
11.7          	((5.683507e-01 2.353821e-07 -1.575079e-20) (1.998859e-01 6.109905e-09 8.632655e-21)) ((-6.317273e-21 -2.263508e-21 -5.504807e-09) (-1.942721e-22 7.348185e-22 7.902890e-09))
11.8          	((5.678080e-01 2.360925e-07 -1.208423e-20) (1.995675e-01 1.229616e-08 3.218408e-21)) ((-4.592660e-21 -5.539557e-21 -7.957641e-09) (-1.669577e-22 8.061116e-22 6.954069e-09))
11.9          	((5.672712e-01 2.338672e-07 2.341219e-20) (1.992545e-01 1.855609e-08 -1.274329e-20)) ((-5.849402e-21 -3.461868e-21 -1.029130e-08) (-4.401683e-22 1.543630e-21 6.062079e-09))
12            	((5.667404e-01 2.407659e-07 -1.184589e-20) (1.989467e-01 2.507693e-08 4.693493e-21)) ((5.982998e-21 6.772709e-21 -1.246961e-08) (-3.973881e-21 -2.927698e-21 5.240175e-09))
12.1          	((5.662138e-01 2.199938e-07 2.732520e-20) (1.986442e-01 3.112772e-08 -1.376539e-20)) ((-1.750484e-20 5.714610e-21 -1.445874e-08) (3.163690e-21 -1.317750e-21 4.500522e-09))
12.2          	((5.656959e-01 2.201295e-07 1.964839e-20) (1.983467e-01 3.718528e-08 -1.215160e-20)) ((-1.022478e-20 2.327520e-21 -1.622853e-08) (8.846982e-22 -1.296028e-21 3.853975e-09))
12.3          	((5.651779e-01 2.097339e-07 9.440302e-21) (1.980542e-01 4.306853e-08 -6.258974e-21)) ((-1.984761e-20 -5.562385e-23 -1.775059e-08) (4.505400e-21 -3.600430e-22 3.309915e-09))
12.4          	((5.646598e-01 2.004017e-07 -4.475754e-21) (1.977665e-01 4.869072e-08 3.730268e-22)) ((-3.055467e-20 -2.195366e-21 -1.900173e-08) (7.850419e-21 6.411729e-22 2.876183e-09))
12.5          	((5.641535e-01 1.836682e-07 1.376462e-20) (1.974836e-01 5.384089e-08 -7.565230e-21)) ((-5.661469e-21 -3.312595e-21 -1.996295e-08) (-3.726457e-22 -1.023768e-22 2.559901e-09))
12.6          	((5.636455e-01 1.708681e-07 -1.958405e-20) (1.972052e-01 5.861831e-08 1.068992e-20)) ((-3.243236e-20 -2.356894e-21 -2.061909e-08) (7.757974e-21 2.341292e-21 2.364815e-09))
12.7          	((5.631432e-01 1.542462e-07 1.706678e-20) (1.969313e-01 6.289740e-08 -7.343363e-21)) ((-1.546855e-20 3.328969e-21 -2.096014e-08) (3.210791e-21 -1.256625e-21 2.294230e-09))
12.8          	((5.626487e-01 1.330345e-07 1.786474e-20) (1.966619e-01 6.655258e-08 -1.003456e-20)) ((4.959455e-21 5.819005e-21 -2.098104e-08) (-3.627612e-21 -1.708387e-21 2.348998e-09))
12.9          	((5.621557e-01 1.128751e-07 -1.147872e-20) (1.963967e-01 6.961083e-08 3.621698e-21)) ((-3.031970e-20 -3.343466e-21 -2.068132e-08) (7.769566e-21 1.175845e-21 2.528552e-09))
13            	((5.616722e-01 8.888068e-08 3.146660e-21) (1.961359e-01 7.197357e-08 -5.528712e-21)) ((-3.213668e-20 1.261847e-21 -2.006578e-08) (7.804907e-21 -1.657416e-21 2.829608e-09))
13.1          	((5.612029e-01 6.463280e-08 7.030391e-21) (1.958794e-01 7.363481e-08 -4.928979e-21)) ((-3.049433e-20 1.193908e-21 -1.914408e-08) (7.703817e-21 -1.662218e-21 3.248095e-09))
13.2          	((5.607160e-01 3.883856e-08 3.425247e-23) (1.956268e-01 7.456072e-08 -1.691104e-21)) ((-3.044988e-20 4.155017e-23 -1.792924e-08) (7.713832e-21 -1.119360e-21 3.777453e-09))
13.3          	((5.602435e-01 1.029395e-08 -1.041302e-20) (1.953783e-01 7.467460e-08 7.688894e-22)) ((7.152796e-21 4.482788e-21 -1.644100e-08) (-3.869316e-21 -3.471807e-21 4.410160e-09))
13.4          	((5.597663e-01 -1.679403e-08 -1.217674e-20) (1.951334e-01 7.406477e-08 3.238604e-21)) ((-4.564929e-21 -5.579362e-21 -1.470157e-08) (-1.318303e-22 8.239352e-22 5.136540e-09))
13.5          	((5.593076e-01 -4.551096e-08 -1.138794e-20) (1.948926e-01 7.270425e-08 4.545898e-21)) ((-1.606394e-20 6.555715e-21 -1.273812e-08) (2.884345e-21 -2.819902e-21 5.945907e-09))
13.6          	((5.588439e-01 -7.949264e-08 -7.007457e-21) (1.946555e-01 7.047452e-08 8.091825e-22)) ((-3.031198e-20 -1.201797e-21 -1.058010e-08) (7.660077e-21 -1.528816e-21 6.826352e-09))
13.7          	((5.583937e-01 -1.115262e-07 2.344874e-21) (1.944221e-01 6.750399e-08 -2.925289e-21)) ((-1.958341e-20 -1.163408e-21 -8.260856e-09) (4.481529e-21 1.604670e-22 7.764867e-09))
13.8          	((5.579360e-01 -1.399251e-07 -6.964584e-21) (1.941922e-01 6.387714e-08 3.290793e-22)) ((-1.970345e-20 -1.163983e-21 -5.815179e-09) (4.375001e-21 -6.992953e-22 8.748019e-09))
13.9          	((5.574957e-01 -1.756911e-07 -4.468817e-21) (1.939660e-01 5.951380e-08 3.950737e-22)) ((-2.988947e-20 -2.193228e-21 -3.280488e-09) (7.681873e-21 6.179878e-22 9.761144e-09))
14            	((5.570526e-01 -2.090055e-07 -1.941166e-20) (1.937433e-01 5.450778e-08 1.108440e-20)) ((-2.135800e-20 -2.491301e-21 -6.951703e-10) (4.365676e-21 1.544754e-21 1.078976e-08))
14.1          	((5.566106e-01 -2.432092e-07 3.245064e-21) (1.935238e-01 4.893216e-08 -1.130847e-21)) ((-4.005152e-21 -5.613508e-21 1.901755e-09) (-4.364939e-22 -2.725923e-23 1.181894e-08))
14.2          	((5.561707e-01 -2.767109e-07 9.238787e-21) (1.933076e-01 4.281774e-08 -5.642916e-21)) ((-2.989788e-20 -2.408493e-23 4.471121e-09) (7.670129e-21 -1.215232e-21 1.283376e-08))
14.3          	((5.557374e-01 -3.095035e-07 6.977325e-21) (1.930946e-01 3.625894e-08 -4.898930e-21)) ((-8.657169e-21 1.212126e-21 6.974398e-09) (9.858452e-22 -1.676671e-21 1.381977e-08))
14.4          	((5.553083e-01 -3.419274e-07 1.932333e-20) (1.928848e-01 2.932133e-08 -1.189352e-20)) ((-1.031295e-20 2.474709e-21 9.374121e-09) (9.755396e-22 -1.370465e-21 1.476297e-08))
14.5          	((5.548820e-01 -3.790188e-07 3.176029e-21) (1.926781e-01 2.196254e-08 -1.117657e-21)) ((-3.986559e-21 -5.582179e-21 1.163449e-08) (-4.329837e-22 -3.227536e-23 1.564992e-08))
14.6          	((5.544587e-01 -4.008214e-07 7.768266e-21) (1.924744e-01 1.461846e-08 -4.067667e-21)) ((-1.516062e-20 3.411795e-21 1.372198e-08) (3.056263e-21 -2.161654e-21 1.646827e-08))
14.7          	((5.540346e-01 -4.343181e-07 -1.928368e-20) (1.922735e-01 7.043515e-09 1.057326e-20)) ((-3.155773e-20 -2.492468e-21 1.560598e-08) (7.546527e-21 2.380976e-21 1.720670e-08))
14.8          	((5.536202e-01 -4.679076e-07 -1.104242e-20) (1.920757e-01 -7.441453e-10 4.438061e-21)) ((-1.565812e-20 6.392003e-21 1.725882e-08) (2.792031e-21 -2.742013e-21 1.785492e-08))
14.9          	((5.532097e-01 -4.848015e-07 -1.101771e-20) (1.918807e-01 -8.210967e-09 4.430413e-21)) ((-1.563187e-20 6.380291e-21 1.865664e-08) (2.786288e-21 -2.736466e-21 1.840421e-08))
15            	((5.527908e-01 -5.172293e-07 9.176565e-21) (1.916884e-01 -1.562436e-08 -5.600061e-21)) ((-8.525895e-21 3.265932e-24 1.977936e-08) (1.082205e-21 -1.221077e-21 1.884712e-08))
15.1          	((5.523918e-01 -5.434781e-07 -1.916652e-20) (1.914990e-01 -2.304987e-08 4.828819e-21)) ((-4.545723e-21 -6.796432e-21 2.061191e-08) (-1.211461e-22 2.085671e-21 1.917822e-08))
15.2          	((5.519848e-01 -5.622505e-07 9.195433e-21) (1.913120e-01 -3.006509e-08 -6.042574e-21)) ((-1.933999e-20 4.945416e-23 2.114252e-08) (4.417795e-21 -4.130347e-22 1.939387e-08))
15.3          	((5.515901e-01 -5.832746e-07 9.948818e-21) (1.911279e-01 -3.674839e-08 -4.288242e-21)) ((-3.951795e-21 -4.336793e-21 2.136570e-08) (-4.054716e-22 -6.001664e-22 1.949186e-08))
15.4          	((5.511995e-01 -6.060856e-07 -2.229252e-20) (1.909464e-01 -4.313351e-08 9.681556e-21)) ((-1.576886e-20 2.905151e-21 2.127935e-08) (2.737686e-21 -4.200648e-22 1.947178e-08))
15.5          	((5.508008e-01 -6.200004e-07 -1.560145e-20) (1.907672e-01 -4.895448e-08 6.862573e-21)) ((-6.212843e-21 -2.547198e-21 2.088618e-08) (-1.178256e-22 1.562564e-21 1.933467e-08))
15.6          	((5.504143e-01 -6.349590e-07 -2.698476e-20) (1.905906e-01 -5.424817e-08 1.337188e-20)) ((-6.474634e-21 -5.973461e-21 2.019504e-08) (-1.578619e-22 2.635892e-21 1.908374e-08))
15.7          	((5.500297e-01 -6.475263e-07 -2.128855e-20) (1.904165e-01 -5.898677e-08 5.926318e-21)) ((7.035629e-21 8.426343e-22 1.921786e-08) (-3.680055e-21 -1.077570e-21 1.872353e-08))