# Forces      
# CofR        : (0.000000e+00 0.000000e+00 0.000000e+00)
# Time        forces(pressure viscous)	moments(pressure viscous)
1000          	((5.986179e-01 5.077419e-02 1.202791e-20) (1.988053e-01 -6.674117e-03 2.844002e-21)) ((6.815815e-21 9.232170e-21 -1.554087e-04) (8.080319e-21 -2.141501e-21 9.643920e-07))
1000.1        	((5.985653e-01 5.915603e-02 6.416849e-21) (1.987783e-01 -5.870663e-03 -1.832396e-21)) ((8.373411e-21 6.794117e-22 -1.970387e-04) (-4.174432e-21 -1.330692e-21 -5.624469e-05))
1000.2        	((5.986126e-01 6.716738e-02 2.748965e-21) (1.987535e-01 -5.047687e-03 -6.588955e-22)) ((-1.503377e-20 1.345420e-21 -2.378533e-04) (3.049026e-21 -1.557465e-21 -1.139839e-04))
1000.3        	((5.987031e-01 7.508488e-02 -2.675930e-20) (1.987314e-01 -4.197293e-03 1.276490e-20)) ((6.619301e-21 1.926705e-21 -2.776499e-04) (-4.069199e-21 -2.077860e-22 -1.712368e-04))
1000.4        	((5.989281e-01 8.252236e-02 3.415904e-21) (1.987135e-01 -3.329571e-03 8.782896e-22)) ((-1.913286e-20 1.056600e-21 -3.163087e-04) (5.686552e-21 -2.065493e-21 -2.277391e-04))
1000.5        	((5.991562e-01 8.965796e-02 -1.477661e-20) (1.986988e-01 -2.447464e-03 7.669877e-21)) ((6.833552e-21 4.946442e-21 -3.536169e-04) (-4.013059e-21 -1.891555e-21 -2.832528e-04))
1000.6        	((5.994446e-01 9.642545e-02 1.080417e-20) (1.986879e-01 -1.554468e-03 -5.547592e-21)) ((-7.429443e-21 4.288522e-22 -3.894486e-04) (8.792327e-22 -1.669246e-21 -3.375414e-04))
1000.7        	((5.997790e-01 1.027334e-01 -2.517659e-20) (1.986806e-01 -6.540083e-04 1.109873e-20)) ((-1.685631e-20 3.376176e-21 -4.236498e-04) (3.185288e-21 -8.821676e-22 -3.903709e-04))
1000.8        	((6.002149e-01 1.085915e-01 2.146179e-20) (1.986779e-01 2.485610e-04 -1.078429e-20)) ((-1.678607e-20 2.846976e-21 -4.561239e-04) (3.007715e-21 -3.305923e-22 -4.415125e-04))
1000.9        	((6.006343e-01 1.140154e-01 1.277364e-20) (1.986791e-01 1.150203e-03 -4.436067e-21)) ((-1.432123e-20 5.078695e-23 -4.866494e-04) (2.956981e-21 -3.972867e-22 -4.907419e-04))
1001          	((6.011753e-01 1.189706e-01 -9.991514e-21) (1.986856e-01 2.048246e-03 5.631664e-21)) ((-3.020133e-21 -9.617572e-21 -5.152084e-04) (9.216963e-22 2.339310e-21 -5.378455e-04))
1001.1        	((6.016310e-01 1.232811e-01 5.947809e-21) (1.986949e-01 2.936137e-03 -9.166312e-21)) ((-1.932506e-20 1.172246e-21 -5.415073e-04) (2.637458e-21 -1.368827e-21 -5.826170e-04))
1001.2        	((6.021616e-01 1.271706e-01 1.801786e-20) (1.987086e-01 3.811319e-03 -9.299188e-21)) ((6.678231e-21 2.216246e-21 -5.655724e-04) (-4.129589e-21 -1.158895e-21 -6.248679e-04))
1001.3        	((6.027103e-01 1.304879e-01 9.790603e-22) (1.987262e-01 4.670705e-03 -9.036665e-21)) ((-2.091686e-20 1.897393e-21 -5.872466e-04) (2.669757e-21 -3.930881e-22 -6.644152e-04))
1001.4        	((6.032280e-01 1.331762e-01 -2.039427e-20) (1.987471e-01 5.509282e-03 1.002334e-20)) ((-3.292872e-20 1.540819e-21 -6.063873e-04) (8.006591e-21 6.204348e-22 -7.010876e-04))
1001.5        	((6.037419e-01 1.353536e-01 -1.556406e-20) (1.987713e-01 6.324241e-03 6.815860e-21)) ((-9.326773e-21 2.241443e-21 -6.229350e-04) (8.309771e-22 -8.887583e-22 -7.347258e-04))
1001.6        	((6.042108e-01 1.368786e-01 -1.610025e-20) (1.987971e-01 7.112018e-03 7.041356e-21)) ((-1.665893e-20 6.019378e-21 -6.367685e-04) (3.218881e-21 -2.735966e-21 -7.651795e-04))
1001.7        	((6.046338e-01 1.377868e-01 -7.064082e-21) (1.988245e-01 7.867283e-03 -1.011793e-21)) ((-1.504047e-20 4.288547e-21 -6.478219e-04) (3.104095e-21 -4.081008e-21 -7.923154e-04))
1001.8        	((6.050792e-01 1.380674e-01 1.752978e-20) (1.988539e-01 8.587226e-03 -3.122429e-21)) ((8.346251e-21 -8.894420e-22 -6.561139e-04) (-2.474310e-21 8.628125e-23 -8.160149e-04))
1001.9        	((6.055205e-01 1.377561e-01 1.773103e-20) (1.988855e-01 9.270420e-03 -1.034003e-20)) ((-1.612399e-20 3.612008e-21 -6.615736e-04) (2.937875e-21 -1.200697e-21 -8.361759e-04))
1002          	((6.058151e-01 1.369445e-01 7.877568e-21) (1.989173e-01 9.913579e-03 -3.794864e-21)) ((-2.100795e-20 2.800510e-21 -6.640122e-04) (5.867907e-21 -1.129087e-21 -8.527073e-04))
1002.1        	((6.061065e-01 1.355040e-01 -1.057639e-20) (1.989492e-01 1.051391e-02 4.425029e-21)) ((6.122121e-21 5.580859e-21 -6.635678e-04) (-3.840058e-21 -2.979768e-21 -8.655356e-04))
1002.2        	((6.063979e-01 1.333730e-01 3.231807e-20) (1.989811e-01 1.106821e-02 -2.045511e-20)) ((-4.132153e-21 -6.313043e-21 -6.602439e-04) (-2.567703e-21 2.954371e-21 -8.746041e-04))
1002.3        	((6.065105e-01 1.308211e-01 -6.836005e-21) (1.990122e-01 1.157455e-02 4.539407e-21)) ((-3.207207e-20 4.311983e-21 -6.538586e-04) (7.912073e-21 -1.171683e-21 -8.798708e-04))
1002.4        	((6.066118e-01 1.274434e-01 -5.139883e-21) (1.990413e-01 1.202947e-02 -1.178025e-21)) ((-2.153876e-20 3.192182e-21 -6.446159e-04) (2.978087e-21 -5.329972e-22 -8.813069e-04))
1002.5        	((6.065690e-01 1.237236e-01 -5.983901e-21) (1.990678e-01 1.243040e-02 -5.486938e-22)) ((-3.112721e-20 1.479411e-21 -6.324191e-04) (8.067095e-21 -3.041097e-21 -8.789059e-04))
1002.6        	((6.065007e-01 1.194971e-01 2.711081e-21) (1.990911e-01 1.277953e-02 -6.161130e-21)) ((-9.981152e-21 3.015597e-21 -6.174394e-04) (1.078841e-21 -2.229960e-21 -8.726717e-04))
1002.7        	((6.064206e-01 1.147004e-01 1.519364e-20) (1.991124e-01 1.307344e-02 -7.163640e-21)) ((-1.503906e-20 7.941573e-22 -5.997577e-04) (3.249334e-21 -8.201320e-22 -8.626336e-04))
1002.8        	((6.061587e-01 1.093664e-01 2.126226e-20) (1.991294e-01 1.330964e-02 -1.178239e-20)) ((6.538366e-21 4.020306e-21 -5.792914e-04) (-3.975681e-21 -1.269060e-21 -8.488347e-04))
1002.9        	((6.059132e-01 1.035789e-01 2.384822e-20) (1.991430e-01 1.348806e-02 -1.648557e-20)) ((-3.756309e-21 -6.731197e-21 -5.563309e-04) (-2.523976e-21 3.167660e-21 -8.313365e-04))
1003          	((6.056024e-01 9.734907e-02 -3.030537e-21) (1.991527e-01 1.360765e-02 5.043045e-23)) ((-1.523422e-20 7.034540e-22 -5.309017e-04) (3.210323e-21 -1.532964e-21 -8.102148e-04))
1003.1        	((6.052327e-01 9.068122e-02 8.608404e-22) (1.991583e-01 1.366833e-02 -8.695613e-21)) ((-2.090000e-20 1.933037e-21 -5.031284e-04) (2.898232e-21 -4.904237e-22 -7.855619e-04))
1003.2        	((6.048333e-01 8.366432e-02 1.176153e-20) (1.991599e-01 1.366929e-02 -1.077549e-21)) ((-2.383134e-21 -8.430818e-21 -4.731646e-04) (7.140569e-22 1.874393e-21 -7.574857e-04))
1003.3        	((6.043866e-01 7.628845e-02 5.452383e-21) (1.991574e-01 1.361182e-02 -8.297004e-22)) ((-1.923876e-20 1.206736e-21 -4.411333e-04) (5.725608e-21 -2.326978e-21 -7.261083e-04))
1003.4        	((6.039104e-01 6.860726e-02 -2.420176e-20) (1.991509e-01 1.349511e-02 6.358261e-21)) ((8.976806e-21 9.351318e-22 -4.071973e-04) (-4.153882e-21 -1.441852e-21 -6.915677e-04))
1003.5        	((6.034164e-01 6.063005e-02 2.868613e-20) (1.991405e-01 1.332105e-02 -1.884762e-20)) ((-4.412742e-21 -4.458777e-21 -3.715209e-04) (-2.186258e-21 2.230684e-21 -6.540156e-04))
1003.6        	((6.029021e-01 5.238698e-02 2.104472e-20) (1.991264e-01 1.308937e-02 -7.481769e-21)) ((-4.453040e-21 -5.218482e-21 -3.342667e-04) (6.358462e-22 1.742945e-21 -6.136174e-04))
1003.7        	((6.023948e-01 4.388434e-02 -3.132514e-20) (1.991091e-01 1.280049e-02 1.018471e-20)) ((-4.877699e-21 -5.889877e-21 -2.956202e-04) (-1.980627e-21 3.569141e-21 -5.705512e-04))
1003.8        	((6.018581e-01 3.517524e-02 -1.500662e-21) (1.990879e-01 1.245566e-02 -2.498272e-21)) ((-3.101808e-20 -1.175710e-23 -2.557384e-04) (8.074452e-21 -2.266579e-21 -5.250062e-04))
1003.9        	((6.013720e-01 2.638105e-02 7.133485e-21) (1.990642e-01 1.205762e-02 -7.934692e-21)) ((-2.760691e-21 -5.731102e-21 -2.148331e-04) (-2.008606e-21 7.757461e-22 -4.771832e-04))
1004          	((6.008775e-01 1.744787e-02 8.741574e-21) (1.990381e-01 1.160742e-02 -8.975922e-21)) ((-1.899983e-20 -4.629863e-22 -1.730576e-04) (3.107377e-21 1.312730e-22 -4.272919e-04))
1004.1        	((6.004135e-01 8.439265e-03 1.317509e-20) (1.990096e-01 1.110706e-02 -9.975976e-21)) ((-3.279876e-20 5.726566e-22 -1.306099e-04) (8.092731e-21 -4.319311e-22 -3.755525e-04))
1004.2        	((5.999932e-01 -6.806014e-04 2.737454e-20) (1.989794e-01 1.055787e-02 -1.339082e-20)) ((-4.668995e-21 -3.253686e-21 -8.767437e-05) (-7.742081e-22 6.243397e-22 -3.221923e-04))
1004.3        	((5.996140e-01 -9.731037e-03 -1.935697e-20) (1.989483e-01 9.962564e-03 9.905622e-21)) ((-3.267776e-20 -2.482828e-21 -4.443203e-05) (8.121798e-21 2.385709e-21 -2.674454e-04))
1004.4        	((5.992671e-01 -1.877392e-02 -1.286751e-20) (1.989163e-01 9.324121e-03 8.430338e-22)) ((-3.164269e-21 -2.567951e-21 -1.061591e-06) (-5.603175e-22 -4.380074e-22 -2.115502e-04))
1004.5        	((5.990013e-01 -2.767459e-02 1.261340e-20) (1.988844e-01 8.645939e-03 -6.904220e-21)) ((8.384345e-21 4.017896e-21 4.225627e-05) (-3.812074e-21 -1.312073e-21 -1.547490e-04))
1004.6        	((5.988033e-01 -3.654381e-02 -6.114160e-22) (1.988533e-01 7.929874e-03 -2.895633e-21)) ((-1.913252e-20 -3.242549e-22 8.534850e-05) (4.352563e-21 -1.106294e-21 -9.728641e-05))
1004.7        	((5.986796e-01 -4.523652e-02 -1.340517e-20) (1.988238e-01 7.177920e-03 3.238761e-21)) ((-3.198474e-21 -1.907615e-21 1.280405e-04) (-6.544622e-22 -1.531555e-21 -3.941191e-05))
1004.8        	((5.986041e-01 -5.375188e-02 -1.213207e-20) (1.987960e-01 6.395183e-03 7.257091e-21)) ((-1.886678e-20 -3.602808e-21 1.701568e-04) (2.924340e-21 2.000690e-23 1.862398e-05))
1004.9        	((5.985879e-01 -6.198796e-02 -7.492419e-21) (1.987693e-01 5.585004e-03 5.323724e-21)) ((-1.913457e-20 -1.419177e-21 2.115292e-04) (2.864540e-21 -1.771367e-21 7.656901e-05))
1005          	((5.986457e-01 -6.998588e-02 -4.477538e-22) (1.987455e-01 4.750351e-03 -2.894697e-21)) ((-7.548911e-21 -6.484551e-22 2.519985e-04) (8.771896e-22 -1.704566e-21 1.341734e-04))
1005.1        	((5.987897e-01 -7.773194e-02 -6.579010e-22) (1.987251e-01 3.893670e-03 -2.167341e-21)) ((-2.059272e-20 1.458503e-21 2.914092e-04) (5.840738e-21 -7.340100e-22 1.911880e-04))
1005.2        	((5.989893e-01 -8.508446e-02 -1.228630e-20) (1.987081e-01 3.020508e-03 1.110709e-20)) ((-2.085424e-20 -1.776746e-21 3.295913e-04) (2.817173e-21 6.332423e-22 2.473687e-04))
1005.3        	((5.992586e-01 -9.205743e-02 -1.826391e-20) (1.986947e-01 2.134360e-03 8.178929e-21)) ((-3.004691e-21 -2.991832e-21 3.664016e-04) (-1.958113e-21 -3.470078e-22 3.024777e-04))
1005.4        	((5.995523e-01 -9.871513e-02 2.154253e-20) (1.986850e-01 1.238420e-03 -1.649173e-20)) ((-2.104000e-20 9.899028e-22 4.016630e-04) (5.942831e-21 -1.618004e-22 3.562795e-04))
1005.5        	((5.999527e-01 -1.048745e-01 2.170927e-20) (1.986794e-01 3.362538e-04 -8.490547e-21)) ((-2.105492e-20 9.373577e-22 4.352858e-04) (2.882304e-21 -1.024882e-21 4.085403e-04))
1005.6        	((6.003652e-01 -1.105399e-01 -1.434360e-20) (1.986782e-01 -5.659729e-04 1.015442e-20)) ((-4.745488e-21 1.582846e-21 4.670714e-04) (-2.043213e-21 -1.699538e-21 4.590337e-04))
1005.7        	((6.008134e-01 -1.158285e-01 9.876690e-21) (1.986811e-01 -1.466977e-03 -7.552751e-21)) ((-1.668243e-20 6.172920e-21 4.969028e-04) (3.447700e-21 -1.764161e-21 5.075390e-04))
1005.8        	((6.013222e-01 -1.205687e-01 1.837935e-20) (1.986884e-01 -2.361741e-03 -6.541149e-21)) ((-4.930512e-21 -5.519513e-22 5.246742e-04) (-1.952709e-21 -9.582269e-22 5.538447e-04))
1005.9        	((6.018124e-01 -1.246924e-01 -2.918458e-20) (1.986994e-01 -3.245653e-03 7.846542e-21)) ((9.530032e-21 4.564913e-21 5.502024e-04) (-4.220917e-21 -1.859694e-21 5.977508e-04))
1006          	((6.023539e-01 -1.283709e-01 -2.267775e-20) (1.987146e-01 -4.115406e-03 9.546351e-21)) ((-1.567938e-20 5.181239e-21 5.734400e-04) (2.878945e-21 -8.974605e-22 6.390717e-04))
1006.1        	((6.028917e-01 -1.315150e-01 -6.640256e-21) (1.987333e-01 -4.968142e-03 9.345938e-21)) ((-2.069946e-20 1.595359e-22 5.942312e-04) (2.817159e-21 -5.499081e-22 6.776276e-04))
1006.2        	((6.034363e-01 -1.340005e-01 1.123632e-20) (1.987555e-01 -5.799063e-03 -6.731210e-22)) ((-3.102196e-21 -3.584801e-21 6.124942e-04) (-1.981025e-21 -1.698968e-22 7.132507e-04))
1006.3        	((6.038936e-01 -1.359506e-01 -5.077735e-21) (1.987802e-01 -6.604689e-03 1.213828e-21)) ((-3.078898e-20 -5.220172e-21 6.280516e-04) (8.280991e-21 2.232437e-21 7.457858e-04))
1006.4        	((6.043623e-01 -1.372584e-01 -5.988231e-21) (1.988066e-01 -7.381527e-03 -2.825970e-21)) ((3.477957e-21 -1.615985e-21 6.409288e-04) (-3.827530e-21 1.782808e-21 7.750883e-04))
1006.5        	((6.048014e-01 -1.378754e-01 -2.922407e-20) (1.988346e-01 -8.124528e-03 1.180841e-20)) ((7.494407e-21 6.598758e-21 6.510235e-04) (-4.268603e-21 -1.320790e-21 8.010295e-04))
1006.6        	((6.052188e-01 -1.380495e-01 2.795316e-20) (1.988648e-01 -8.831996e-03 -1.218825e-20)) ((-3.298228e-20 -5.242661e-22 6.582933e-04) (6.804507e-21 -1.670975e-22 8.234974e-04))
1006.7        	((6.056270e-01 -1.375630e-01 8.756278e-21) (1.988968e-01 -9.501375e-03 -4.490074e-21)) ((-1.487698e-20 5.529012e-21 6.627086e-04) (3.274729e-21 -2.376228e-21 8.423926e-04))
1006.8        	((6.059533e-01 -1.364671e-01 -8.910781e-22) (1.989288e-01 -1.012987e-02 -2.102111e-21)) ((-7.911605e-21 -8.748267e-22 6.641676e-04) (1.036735e-21 -1.450869e-21 8.576315e-04))
1006.9        	((6.061906e-01 -1.348244e-01 -5.649703e-21) (1.989605e-01 -1.071407e-02 -1.219410e-21)) ((-7.756325e-21 -3.104160e-21 6.626504e-04) (1.103626e-21 2.280388e-22 8.691456e-04))
1007          	((6.064633e-01 -1.325410e-01 6.530631e-21) (1.989924e-01 -1.125201e-02 -4.815864e-21)) ((-7.917365e-21 8.038767e-24 6.582940e-04) (1.049618e-21 -8.468186e-22 8.768837e-04))
1007.1        	((6.065427e-01 -1.297311e-01 -1.402297e-20) (1.990226e-01 -1.174110e-02 7.119639e-21)) ((-3.159723e-21 -2.266380e-21 6.508679e-04) (-1.937366e-21 -5.458561e-22 8.808076e-04))
1007.2        	((6.066013e-01 -1.261899e-01 2.341300e-21) (1.990510e-01 -1.217618e-02 -2.869634e-21)) ((-3.113118e-20 -2.028896e-21 6.405897e-04) (8.206215e-21 -1.128759e-21 8.808973e-04))
1007.3        	((6.065565e-01 -1.223132e-01 2.427131e-20) (1.990764e-01 -1.255938e-02 -1.305959e-20)) ((6.475696e-21 7.495008e-21 6.274177e-04) (-3.916317e-21 -1.340384e-21 8.771497e-04))
1007.4        	((6.064667e-01 -1.178822e-01 5.172326e-21) (1.990989e-01 -1.288895e-02 -8.642072e-21)) ((-1.905251e-20 -1.854032e-21 6.114655e-04) (5.828262e-21 -1.107923e-21 8.695768e-04))
1007.5        	((6.063284e-01 -1.128683e-01 2.310227e-20) (1.991189e-01 -1.316272e-02 -9.018044e-21)) ((-2.115407e-20 9.474816e-22 5.928047e-04) (2.915842e-21 -9.857781e-22 8.582138e-04))
1007.6        	((6.060833e-01 -1.073834e-01 1.855216e-20) (1.991347e-01 -1.337864e-02 -7.833869e-21)) ((-3.293368e-20 -6.218835e-22 5.714677e-04) (6.846307e-21 -4.927070e-23 8.431094e-04))
1007.7        	((6.058118e-01 -1.014230e-01 1.820469e-20) (1.991469e-01 -1.353604e-02 -7.706500e-21)) ((-3.292104e-20 -4.959934e-22 5.476297e-04) (6.847960e-21 -1.023018e-22 8.243303e-04))
1007.8        	((6.054680e-01 -9.507884e-02 1.154838e-20) (1.991552e-01 -1.363543e-02 -8.959079e-21)) ((6.510032e-21 5.062909e-21 5.213584e-04) (-3.979162e-21 -6.486815e-22 8.019586e-04))
1007.9        	((6.050993e-01 -8.824825e-02 7.126849e-21) (1.991593e-01 -1.367534e-02 -6.393990e-21)) ((-3.271194e-20 2.984388e-22 4.928161e-04) (8.244477e-21 -1.064944e-21 7.760916e-04))
1008          	((6.046625e-01 -8.114962e-02 -8.264762e-21) (1.991594e-01 -1.365582e-02 6.986106e-21)) ((-1.587643e-20 8.497653e-21 4.621013e-04) (1.732735e-21 -3.553299e-21 7.468436e-04))
1008.1        	((6.042249e-01 -7.360407e-02 1.372045e-20) (1.991556e-01 -1.357738e-02 -6.521998e-21)) ((-3.267066e-20 1.436620e-21 4.294059e-04) (6.902318e-21 -1.301575e-21 7.143411e-04))
1008.2        	((6.037339e-01 -6.583160e-02 -1.694320e-20) (1.991478e-01 -1.344030e-02 8.901304e-21)) ((-3.160156e-21 -4.909025e-21 3.948444e-04) (-1.859795e-21 4.660181e-22 6.787282e-04))
1008.3        	((6.032354e-01 -5.777402e-02 5.460404e-21) (1.991360e-01 -1.324615e-02 -3.114333e-21)) ((-3.263001e-20 8.054055e-22 3.586053e-04) (6.902747e-21 -1.567535e-21 6.401598e-04))
1008.4        	((6.027241e-01 -4.940337e-02 -1.105016e-20) (1.991206e-01 -1.299433e-02 7.525460e-21)) ((-3.282630e-20 -1.264919e-21 3.208515e-04) (8.080067e-21 1.915330e-21 5.988064e-04))
1008.5        	((6.022006e-01 -4.083559e-02 -7.115911e-21) (1.991020e-01 -1.268560e-02 1.171950e-21)) ((-2.072301e-20 1.102611e-21 2.817566e-04) (5.723394e-21 1.489925e-22 5.548504e-04))
1008.6        	((6.016926e-01 -3.210529e-02 3.347647e-20) (1.990799e-01 -1.232205e-02 -1.263807e-20)) ((-4.287511e-21 -1.092898e-21 2.415076e-04) (-2.166737e-21 -2.323939e-22 5.084843e-04))
1008.7        	((6.011919e-01 -2.324701e-02 1.157451e-20) (1.990552e-01 -1.190531e-02 -2.387589e-21)) ((-1.901153e-20 -4.302529e-22 2.002778e-04) (3.061249e-21 -1.220435e-21 4.599123e-04))
1008.8        	((6.007173e-01 -1.428655e-02 1.621553e-20) (1.990282e-01 -1.143739e-02 -3.253693e-21)) ((-2.608225e-21 -4.601046e-21 1.582544e-04) (-2.071058e-21 -8.705177e-22 4.093482e-04))
1008.9        	((6.002579e-01 -5.243897e-03 2.526673e-21) (1.989990e-01 -1.091961e-02 -5.237246e-21)) ((-9.132858e-21 1.037976e-21 1.156174e-04) (9.171158e-22 -1.308784e-21 3.570145e-04))
1009          	((5.998575e-01 3.868686e-03 -7.872431e-21) (1.989685e-01 -1.035367e-02 8.308432e-22)) ((8.738702e-21 4.734198e-21 7.255860e-05) (-4.128631e-21 -3.601503e-21 3.031411e-04))
1009.1        	((5.994799e-01 1.291390e-02 2.647703e-21) (1.989370e-01 -9.743022e-03 -4.848012e-21)) ((-9.108242e-21 1.272648e-21 2.925360e-05) (8.873156e-22 -1.639266e-21 2.479640e-04))
1009.2        	((5.991712e-01 2.190081e-02 2.906612e-24) (1.989050e-01 -9.090247e-03 -9.746553e-22)) ((-7.517076e-21 4.660579e-23 -1.411541e-05) (7.436292e-22 -1.199479e-21 1.917228e-04))
1009.3        	((5.989191e-01 3.080246e-02 3.335403e-21) (1.988731e-01 -8.398517e-03 -8.008646e-22)) ((-1.498763e-20 1.965111e-21 -5.737151e-05) (3.062357e-21 -1.634988e-21 1.346603e-04))
1009.4        	((5.987585e-01 3.966192e-02 -1.769527e-21) (1.988428e-01 -7.668830e-03 -2.123796e-21)) ((-1.481356e-20 5.899987e-21 -1.003428e-04) (3.102862e-21 -4.227321e-21 7.702349e-05))
1009.5        	((5.986412e-01 4.822007e-02 7.739498e-21) (1.988137e-01 -6.906861e-03 -1.598506e-21)) ((-1.913082e-20 1.344347e-21 -1.428496e-04) (5.624967e-21 -2.322884e-21 1.906230e-05))
1009.6        	((5.985784e-01 5.668141e-02 -1.072148e-20) (1.987863e-01 -6.113637e-03 2.296065e-21)) ((8.791472e-21 1.699989e-21 -1.847235e-04) (-4.045192e-21 -1.734463e-21 -3.897264e-05))
1009.7        	((5.986024e-01 6.480840e-02 -1.314445e-21) (1.987603e-01 -5.294502e-03 -5.514957e-21)) ((-3.302513e-21 -5.104371e-21 -2.258036e-04) (-2.124765e-21 7.216463e-22 -9.682824e-05))
1009.8        	((5.986701e-01 7.279006e-02 -7.669805e-21) (1.987374e-01 -4.451626e-03 4.083989e-21)) ((6.901117e-21 6.096879e-21 -2.659132e-04) (-4.023996e-21 -2.922451e-21 -1.542560e-04))
1009.9        	((5.988642e-01 8.034093e-02 -7.561916e-21) (1.987183e-01 -3.588765e-03 4.032563e-21)) ((6.874157e-21 6.010863e-21 -3.049273e-04) (-4.021007e-21 -2.919009e-21 -2.110074e-04))
1010          	((5.990709e-01 8.758768e-02 -1.014584e-20) (1.987026e-01 -2.710626e-03 5.958463e-21)) ((8.688465e-21 1.244409e-21 -3.426414e-04) (-4.565445e-21 -1.315428e-21 -2.668415e-04))
1010.1        	((5.993643e-01 9.444027e-02 -1.302058e-20) (1.986906e-01 -1.820502e-03 7.681889e-21)) ((-2.996401e-21 -9.002015e-21 -3.789400e-04) (8.628365e-22 2.306871e-21 -3.215206e-04))
1010.2        	((5.996722e-01 1.009011e-01 1.798114e-21) (1.986821e-01 -9.221078e-04 -3.402146e-21)) ((8.389487e-21 4.236895e-21 -4.136326e-04) (-4.103846e-21 -3.919082e-21 -3.748102e-04))
1010.3        	((6.000949e-01 1.069114e-01 -3.186034e-21) (1.986781e-01 -1.957241e-05 -1.802899e-21)) ((-4.816235e-21 -3.598480e-21 -4.466458e-04) (-2.173990e-21 1.605196e-21 -4.264787e-04))
1010.4        	((6.005002e-01 1.124485e-01 -6.725167e-21) (1.986781e-01 8.825123e-04 3.158203e-22)) ((7.739419e-21 3.151638e-21 -4.777503e-04) (-3.887600e-21 -3.473268e-21 -4.763004e-04))
1010.5        	((6.010183e-01 1.175471e-01 -1.843855e-20) (1.986832e-01 1.782066e-03 9.567165e-21)) ((-3.226054e-20 1.353651e-21 -5.069179e-04) (7.795578e-21 7.247983e-22 -5.240591e-04))
1010.6        	((6.014889e-01 1.220853e-01 1.976967e-20) (1.986917e-01 2.673661e-03 -7.794855e-21)) ((-1.432369e-20 8.446078e-22 -5.338939e-04) (2.934030e-21 -8.252498e-22 -5.695453e-04))
1010.7        	((6.020020e-01 1.260704e-01 -1.938096e-20) (1.987042e-01 3.553158e-03 9.129304e-21)) ((6.440721e-21 2.383396e-21 -5.586395e-04) (-4.028116e-21 -6.439200e-22 -6.125655e-04))
1010.8        	((6.025431e-01 1.295258e-01 -2.271641e-21) (1.987206e-01 4.417136e-03 -2.170801e-21)) ((-2.033789e-20 2.808535e-21 -5.810360e-04) (2.542772e-21 -3.637038e-22 -6.529362e-04))
1010.9        	((6.030592e-01 1.324624e-01 -2.237426e-21) (1.987404e-01 5.262605e-03 -1.228477e-21)) ((8.322317e-21 3.371002e-21 -6.009323e-04) (-4.081949e-21 -3.623052e-21 -6.904818e-04))
1011          	((6.036024e-01 1.347760e-01 1.093572e-21) (1.987638e-01 6.084958e-03 1.476481e-21)) ((-7.702681e-21 1.487141e-21 -6.182898e-04) (2.289064e-21 -1.719071e-21 -7.250387e-04))
1011.1        	((6.040575e-01 1.364792e-01 4.008725e-21) (1.987890e-01 6.881083e-03 -8.583889e-22)) ((-7.447126e-21 2.067886e-22 -6.329130e-04) (7.856417e-22 -3.976960e-22 -7.564548e-04))
1011.2        	((6.045003e-01 1.375974e-01 4.853641e-21) (1.988160e-01 7.646871e-03 1.082532e-21)) ((-1.914503e-20 -2.783634e-22 -6.448095e-04) (5.890389e-21 -5.760554e-22 -7.845919e-04))
1011.3        	((6.049563e-01 1.379960e-01 -2.101818e-21) (1.988449e-01 8.377447e-03 2.647260e-21)) ((-1.941979e-20 2.295436e-22 -6.539497e-04) (5.849066e-21 -1.821077e-21 -8.093260e-04))
1011.4        	((6.054131e-01 1.378956e-01 -2.483180e-20) (1.988763e-01 9.071568e-03 1.170821e-20)) ((6.071327e-21 3.684940e-21 -6.602754e-04) (-3.965216e-21 -9.433067e-22 -8.305519e-04))
1011.5        	((6.057207e-01 1.372688e-01 2.376707e-20) (1.989079e-01 9.726948e-03 -1.316627e-20)) ((-1.674567e-20 4.555353e-21 -6.635834e-04) (2.987122e-21 -1.072139e-21 -8.481723e-04))
1011.6        	((6.060411e-01 1.359680e-01 -9.251886e-21) (1.989396e-01 1.034076e-02 4.025708e-21)) ((6.741184e-21 5.547621e-21 -6.640290e-04) (-4.029857e-21 -2.966933e-21 -8.621099e-04))
1011.7        	((6.062888e-01 1.340890e-01 2.391308e-20) (1.989714e-01 1.090883e-02 -9.563364e-21)) ((8.333081e-21 2.277609e-22 -6.615153e-04) (-4.015070e-21 -7.067613e-22 -8.723030e-04))
1011.8        	((6.064828e-01 1.316662e-01 2.337038e-20) (1.990032e-01 1.142968e-02 -9.079865e-21)) ((6.568234e-21 3.456197e-21 -6.560695e-04) (-2.493160e-21 -8.392912e-22 -8.787054e-04))
1011.9        	((6.065935e-01 1.285005e-01 -1.136572e-20) (1.990328e-01 1.190051e-02 4.562345e-21)) ((6.188910e-21 5.701292e-21 -6.476813e-04) (-3.861589e-21 -3.006302e-21 -8.812834e-04))
1012          	((6.065841e-01 1.248664e-01 9.043045e-21) (1.990602e-01 1.231661e-02 -1.228902e-20)) ((-2.042345e-20 2.634623e-21 -6.363504e-04) (2.612081e-21 -2.256238e-22 -8.800249e-04))
1012.1        	((6.065333e-01 1.208052e-01 -1.678723e-20) (1.990843e-01 1.268179e-02 3.889303e-21)) ((-5.281177e-21 -4.603743e-21 -6.222047e-04) (-1.974649e-21 2.572845e-21 -8.749291e-04))
1012.2        	((6.064587e-01 1.161861e-01 -2.315976e-20) (1.991064e-01 1.299219e-02 1.539512e-20)) ((-2.117702e-20 -9.638241e-22 -6.053219e-04) (5.811152e-21 1.310239e-21 -8.660186e-04))
1012.3        	((6.062463e-01 1.109905e-01 -2.444231e-20) (1.991250e-01 1.324564e-02 6.539894e-21)) ((-4.939210e-21 -7.043518e-21 -5.856696e-04) (-2.155950e-21 3.877145e-21 -8.533323e-04))
1012.4        	((6.059849e-01 1.053428e-01 2.030206e-20) (1.991393e-01 1.344124e-02 -4.844207e-21)) ((-2.275696e-21 -7.996271e-21 -5.634312e-04) (6.757599e-22 1.603812e-21 -8.369258e-04))
1012.5        	((6.057072e-01 9.924908e-02 -3.266612e-20) (1.991503e-01 1.357832e-02 1.084877e-20)) ((-1.637850e-20 4.143355e-21 -5.387365e-04) (3.114273e-21 -2.442682e-21 -8.168713e-04))
1012.6        	((6.053288e-01 9.273063e-02 -1.237266e-20) (1.991570e-01 1.365665e-02 1.002023e-20)) ((-9.511968e-21 5.505275e-22 -5.116241e-04) (2.397662e-21 1.316604e-21 -7.932560e-04))
1012.7        	((6.049544e-01 8.579369e-02 -1.778443e-20) (1.991598e-01 1.367531e-02 1.237164e-20)) ((-4.635413e-21 -3.779837e-21 -4.823108e-04) (8.455534e-22 1.404204e-21 -7.661839e-04))
1012.8        	((6.045164e-01 7.854573e-02 8.605303e-21) (1.991586e-01 1.363529e-02 -1.698610e-21)) ((8.154629e-21 2.195963e-21 -4.508755e-04) (-2.463394e-21 -1.784830e-21 -7.357732e-04))
1012.9        	((6.040592e-01 7.091978e-02 -1.941114e-20) (1.991533e-01 1.353609e-02 1.010077e-20)) ((-3.257645e-20 1.215563e-21 -4.174978e-04) (8.001224e-21 1.023090e-21 -7.021566e-04))
1013          	((6.035647e-01 6.302392e-02 9.808364e-22) (1.991441e-01 1.337901e-02 -5.629039e-21)) ((-1.905512e-20 -1.191848e-21 -3.823198e-04) (3.008998e-21 5.174282e-22 -6.654824e-04))
1013.1        	((6.030565e-01 5.487241e-02 -3.073265e-21) (1.991311e-01 1.316440e-02 -1.407478e-21)) ((-2.073175e-20 2.538968e-21 -3.455184e-04) (2.973990e-21 -4.276410e-22 -6.259116e-04))
1013.2        	((6.025443e-01 4.642385e-02 -2.041640e-20) (1.991145e-01 1.289257e-02 3.885477e-21)) ((-1.431188e-20 1.730399e-21 -3.072671e-04) (3.072103e-21 -1.756153e-21 -5.836181e-04))
1013.3        	((6.020139e-01 3.777988e-02 -3.152657e-20) (1.990945e-01 1.256431e-02 1.027953e-20)) ((-4.878155e-21 -5.755020e-21 -2.677334e-04) (-1.962534e-21 3.520321e-21 -5.387887e-04))
1013.4        	((6.015175e-01 2.900203e-02 -1.514311e-21) (1.990716e-01 1.218183e-02 -5.272158e-21)) ((-1.917684e-20 2.873586e-23 -2.271161e-04) (3.019294e-21 -9.685258e-22 -4.916201e-04))
1013.5        	((6.010124e-01 2.011399e-02 7.162712e-21) (1.990461e-01 1.174682e-02 -6.932879e-21)) ((-1.684224e-20 4.281627e-21 -1.855752e-04) (3.387174e-21 -1.542718e-21 -4.423197e-04))
1013.6        	((6.005502e-01 1.111552e-02 7.279028e-21) (1.990182e-01 1.126115e-02 -4.061370e-21)) ((8.374130e-21 2.270124e-21 -1.433103e-04) (-3.822180e-21 -7.591187e-22 -3.911046e-04))
1013.7        	((6.001108e-01 2.034814e-03 9.430528e-21) (1.989885e-01 1.072633e-02 -9.181773e-21)) ((-2.079950e-20 2.210751e-21 -1.004981e-04) (4.382511e-21 -5.191216e-22 -3.382003e-04))
1013.8        	((5.997267e-01 -7.040205e-03 1.397313e-20) (1.989577e-01 1.014436e-02 -1.022664e-20)) ((-3.279529e-20 3.178746e-22 -5.732665e-05) (8.103388e-21 -3.170634e-22 -2.838388e-04))
1013.9        	((5.993618e-01 -1.609312e-02 6.888611e-21) (1.989259e-01 9.518495e-03 -4.057952e-21)) ((-1.500576e-20 2.113384e-21 -1.397222e-05) (3.423356e-21 -6.070350e-22 -2.282576e-04))
1014          	((5.990781e-01 -2.503388e-02 7.603710e-21) (1.988938e-01 8.851587e-03 -7.097727e-21)) ((-1.684138e-20 4.917290e-21 2.938214e-05) (3.438936e-21 -1.617666e-21 -1.716982e-04))
1014.1        	((5.988518e-01 -3.392394e-02 9.341921e-21) (1.988623e-01 8.146546e-03 -4.368496e-21)) ((-1.897792e-20 -6.791098e-22 7.256179e-05) (4.286622e-21 -9.369374e-22 -1.144039e-04))
1014.2        	((5.987173e-01 -4.268019e-02 -1.785571e-20) (1.988325e-01 7.404721e-03 5.147449e-21)) ((-2.930207e-21 -4.200564e-21 1.153953e-04) (-6.057458e-22 2.890431e-22 -5.662328e-05))
1014.3        	((5.986148e-01 -5.124001e-02 5.410216e-21) (1.988039e-01 6.631342e-03 -1.530392e-21)) ((-3.078326e-20 -2.528816e-21 1.577009e-04) (6.852318e-21 -3.361293e-22 1.393437e-06))
1014.4        	((5.985629e-01 -5.957894e-02 1.037201e-20) (1.987769e-01 5.828650e-03 -9.296961e-21)) ((-9.215753e-21 1.664334e-21 1.993092e-04) (9.655592e-22 -1.139438e-21 5.939415e-05))
1014.5        	((5.986170e-01 -6.763735e-02 9.765263e-21) (1.987523e-01 5.000625e-03 -1.120001e-20)) ((-4.754332e-21 -2.503446e-21 2.400730e-04) (1.003821e-21 1.480694e-22 1.171281e-04))
1014.6        	((5.987171e-01 -7.548566e-02 -7.810707e-21) (1.987305e-01 4.150598e-03 1.622799e-21)) ((-3.069566e-20 -4.617852e-21 2.798100e-04) (8.251612e-21 1.857617e-21 1.743462e-04))
1014.7        	((5.989340e-01 -8.292645e-02 1.525152e-20) (1.987126e-01 3.281967e-03 -7.737400e-21)) ((-1.494250e-20 4.256759e-21 3.183939e-04) (3.429960e-21 -1.189765e-21 2.308022e-04))
1014.8        	((5.991750e-01 -9.003467e-02 1.031370e-20) (1.986982e-01 2.399110e-03 -1.762065e-21)) ((-1.901671e-20 -9.384155e-22 3.556286e-04) (2.926569e-21 -1.125361e-21 2.862570e-04))
1014.9        	((5.994610e-01 -9.679195e-02 5.720322e-21) (1.986875e-01 1.505643e-03 -4.161246e-21)) ((-1.506063e-20 4.834470e-21 3.913699e-04) (3.360547e-21 -2.281395e-21 3.404742e-04))
1015          	((5.998192e-01 -1.030710e-01 -4.287956e-21) (1.986805e-01 6.048478e-04 -2.814749e-21)) ((-1.401969e-20 6.902888e-21 4.254908e-04) (2.905302e-21 -4.095638e-21 3.932195e-04))
1015.1        	((6.002383e-01 -1.089004e-01 1.075358e-20) (1.986781e-01 -2.977167e-04 -9.884557e-21)) ((-1.905117e-20 -1.030846e-21 4.578489e-04) (6.006469e-21 -2.267469e-22 4.442642e-04))
1015.2        	((6.006624e-01 -1.143021e-01 2.069679e-20) (1.986795e-01 -1.199284e-03 -1.252995e-20)) ((6.498273e-21 7.385858e-21 4.882667e-04) (-3.838691e-21 -1.369808e-21 4.933852e-04))
1015.3        	((6.011993e-01 -1.192250e-01 1.088309e-21) (1.986862e-01 -2.096874e-03 1.826187e-21)) ((-1.921994e-20 -7.402099e-22 5.167042e-04) (2.843124e-21 -2.162117e-21 5.403690e-04))
1015.4        	((6.016569e-01 -1.235109e-01 -1.369804e-20) (1.986956e-01 -2.984246e-03 8.501477e-21)) ((-3.270554e-20 -4.267719e-21 5.428801e-04) (8.173049e-21 3.195802e-21 5.850101e-04))
1015.5        	((6.021936e-01 -1.273651e-01 -1.825420e-20) (1.987096e-01 -3.858704e-03 7.881035e-21)) ((-1.541919e-20 7.392542e-21 5.668205e-04) (2.904645e-21 -2.103601e-21 6.271207e-04))
1015.6        	((6.027415e-01 -1.306563e-01 -2.509768e-21) (1.987275e-01 -4.717074e-03 -3.122941e-21)) ((-1.399131e-20 7.465785e-21 5.883584e-04) (2.914864e-21 -4.176672e-21 6.665184e-04))
1015.7        	((6.032621e-01 -1.332979e-01 -3.264972e-20) (1.987486e-01 -5.554328e-03 1.061340e-20)) ((-5.056453e-21 -2.071644e-21 6.073616e-04) (1.052529e-21 1.671871e-21 7.030321e-04))