# Motion State
# Angle Units : degrees
# Time        	centreOfRotation	centreOfMass	rotation	velocity	omega
0             	(0.000000e+00 0.000000e+00 0.000000e+00)	(0.000000e+00 0.000000e+00 0.000000e+00)	(0.000000e+00 0.000000e+00 0.000000e+00)	(0.000000e+00 0.000000e+00 0.000000e+00)	(0.000000e+00 0.000000e+00 0.000000e+00)
0.1           	(0.000000e+00 0.000000e+00 0.000000e+00)	(0.000000e+00 0.000000e+00 0.000000e+00)	(0.000000e+00 0.000000e+00 0.000000e+00)	(0.000000e+00 -7.036667e-19 0.000000e+00)	(0.000000e+00 0.000000e+00 0.000000e+00)
0.2           	(0.000000e+00 -1.407333e-19 0.000000e+00)	(0.000000e+00 -1.407333e-19 0.000000e+00)	(0.000000e+00 0.000000e+00 0.000000e+00)	(0.000000e+00 -2.251052e-09 0.000000e+00)	(0.000000e+00 0.000000e+00 0.000000e+00)
0.3           	(0.000000e+00 -4.502104e-10 0.000000e+00)	(0.000000e+00 -4.502104e-10 0.000000e+00)	(0.000000e+00 0.000000e+00 0.000000e+00)	(0.000000e+00 -1.988850e-09 0.000000e+00)	(0.000000e+00 0.000000e+00 0.000000e+00)
0.4           	(0.000000e+00 -3.977700e-10 0.000000e+00)	(0.000000e+00 -3.977700e-10 0.000000e+00)	(0.000000e+00 0.000000e+00 0.000000e+00)	(0.000000e+00 2.496137e-09 0.000000e+00)	(0.000000e+00 0.000000e+00 0.000000e+00)
0.5           	(0.000000e+00 4.901700e-11 0.000000e+00)	(0.000000e+00 4.901700e-11 0.000000e+00)	(0.000000e+00 0.000000e+00 0.000000e+00)	(0.000000e+00 6.340085e-09 0.000000e+00)	(0.000000e+00 0.000000e+00 0.000000e+00)
0.6           	(0.000000e+00 8.702469e-10 0.000000e+00)	(0.000000e+00 8.702469e-10 0.000000e+00)	(0.000000e+00 0.000000e+00 0.000000e+00)	(0.000000e+00 1.005824e-08 0.000000e+00)	(0.000000e+00 0.000000e+00 0.000000e+00)
0.7           	(0.000000e+00 2.060664e-09 0.000000e+00)	(0.000000e+00 2.060664e-09 0.000000e+00)	(0.000000e+00 0.000000e+00 0.000000e+00)	(0.000000e+00 1.367321e-08 0.000000e+00)	(0.000000e+00 0.000000e+00 0.000000e+00)
0.8           	(0.000000e+00 3.604888e-09 0.000000e+00)	(0.000000e+00 3.604888e-09 0.000000e+00)	(0.000000e+00 0.000000e+00 0.000000e+00)	(0.000000e+00 1.712381e-08 0.000000e+00)	(0.000000e+00 0.000000e+00 0.000000e+00)
0.9           	(0.000000e+00 5.485427e-09 0.000000e+00)	(0.000000e+00 5.485427e-09 0.000000e+00)	(0.000000e+00 0.000000e+00 0.000000e+00)	(0.000000e+00 2.034475e-08 0.000000e+00)	(0.000000e+00 0.000000e+00 0.000000e+00)
1             	(0.000000e+00 7.673839e-09 0.000000e+00)	(0.000000e+00 7.673839e-09 0.000000e+00)	(0.000000e+00 0.000000e+00 0.000000e+00)	(0.000000e+00 2.323607e-08 0.000000e+00)	(0.000000e+00 0.000000e+00 0.000000e+00)
1.1           	(0.000000e+00 1.013264e-08 0.000000e+00)	(0.000000e+00 1.013264e-08 0.000000e+00)	(0.000000e+00 0.000000e+00 0.000000e+00)	(0.000000e+00 2.572745e-08 0.000000e+00)	(0.000000e+00 0.000000e+00 0.000000e+00)
1.2           	(0.000000e+00 1.281933e-08 0.000000e+00)	(0.000000e+00 1.281933e-08 0.000000e+00)	(0.000000e+00 0.000000e+00 0.000000e+00)	(0.000000e+00 2.776500e-08 0.000000e+00)	(0.000000e+00 0.000000e+00 0.000000e+00)
1.3           	(0.000000e+00 1.568564e-08 0.000000e+00)	(0.000000e+00 1.568564e-08 0.000000e+00)	(0.000000e+00 0.000000e+00 0.000000e+00)	(0.000000e+00 2.929795e-08 0.000000e+00)	(0.000000e+00 0.000000e+00 0.000000e+00)
1.4           	(0.000000e+00 1.867892e-08 0.000000e+00)	(0.000000e+00 1.867892e-08 0.000000e+00)	(0.000000e+00 0.000000e+00 0.000000e+00)	(0.000000e+00 3.028188e-08 0.000000e+00)	(0.000000e+00 0.000000e+00 0.000000e+00)
1.5           	(0.000000e+00 2.174202e-08 0.000000e+00)	(0.000000e+00 2.174202e-08 0.000000e+00)	(0.000000e+00 0.000000e+00 0.000000e+00)	(0.000000e+00 3.068027e-08 0.000000e+00)	(0.000000e+00 0.000000e+00 0.000000e+00)
1.6           	(0.000000e+00 2.481497e-08 0.000000e+00)	(0.000000e+00 2.481497e-08 0.000000e+00)	(0.000000e+00 0.000000e+00 0.000000e+00)	(0.000000e+00 3.046521e-08 0.000000e+00)	(0.000000e+00 0.000000e+00 0.000000e+00)
1.7           	(0.000000e+00 2.783506e-08 0.000000e+00)	(0.000000e+00 2.783506e-08 0.000000e+00)	(0.000000e+00 0.000000e+00 0.000000e+00)	(0.000000e+00 2.961176e-08 0.000000e+00)	(0.000000e+00 0.000000e+00 0.000000e+00)
1.8           	(0.000000e+00 3.073733e-08 0.000000e+00)	(0.000000e+00 3.073733e-08 0.000000e+00)	(0.000000e+00 0.000000e+00 0.000000e+00)	(0.000000e+00 2.811559e-08 0.000000e+00)	(0.000000e+00 0.000000e+00 0.000000e+00)
1.9           	(0.000000e+00 3.345818e-08 0.000000e+00)	(0.000000e+00 3.345818e-08 0.000000e+00)	(0.000000e+00 0.000000e+00 0.000000e+00)	(0.000000e+00 2.598587e-08 0.000000e+00)	(0.000000e+00 0.000000e+00 0.000000e+00)
2             	(0.000000e+00 3.593450e-08 0.000000e+00)	(0.000000e+00 3.593450e-08 0.000000e+00)	(0.000000e+00 0.000000e+00 0.000000e+00)	(0.000000e+00 2.324374e-08 0.000000e+00)	(0.000000e+00 0.000000e+00 0.000000e+00)
2.1           	(0.000000e+00 3.810693e-08 0.000000e+00)	(0.000000e+00 3.810693e-08 0.000000e+00)	(0.000000e+00 0.000000e+00 0.000000e+00)	(0.000000e+00 1.992285e-08 0.000000e+00)	(0.000000e+00 0.000000e+00 0.000000e+00)
2.2           	(0.000000e+00 3.991907e-08 0.000000e+00)	(0.000000e+00 3.991907e-08 0.000000e+00)	(0.000000e+00 0.000000e+00 0.000000e+00)	(0.000000e+00 1.606936e-08 0.000000e+00)	(0.000000e+00 0.000000e+00 0.000000e+00)
2.3           	(0.000000e+00 4.132080e-08 0.000000e+00)	(0.000000e+00 4.132080e-08 0.000000e+00)	(0.000000e+00 0.000000e+00 0.000000e+00)	(0.000000e+00 1.175000e-08 0.000000e+00)	(0.000000e+00 0.000000e+00 0.000000e+00)
2.4           	(0.000000e+00 4.226907e-08 0.000000e+00)	(0.000000e+00 4.226907e-08 0.000000e+00)	(0.000000e+00 0.000000e+00 0.000000e+00)	(0.000000e+00 7.039912e-09 0.000000e+00)	(0.000000e+00 0.000000e+00 0.000000e+00)
2.5           	(0.000000e+00 4.272878e-08 0.000000e+00)	(0.000000e+00 4.272878e-08 0.000000e+00)	(0.000000e+00 0.000000e+00 0.000000e+00)	(0.000000e+00 2.023853e-09 0.000000e+00)	(0.000000e+00 0.000000e+00 0.000000e+00)
2.6           	(0.000000e+00 4.267384e-08 0.000000e+00)	(0.000000e+00 4.267384e-08 0.000000e+00)	(0.000000e+00 0.000000e+00 0.000000e+00)	(0.000000e+00 -3.204613e-09 0.000000e+00)	(0.000000e+00 0.000000e+00 0.000000e+00)
2.7           	(0.000000e+00 4.208786e-08 0.000000e+00)	(0.000000e+00 4.208786e-08 0.000000e+00)	(0.000000e+00 0.000000e+00 0.000000e+00)	(0.000000e+00 -8.547933e-09 0.000000e+00)	(0.000000e+00 0.000000e+00 0.000000e+00)
2.8           	(0.000000e+00 4.096425e-08 0.000000e+00)	(0.000000e+00 4.096425e-08 0.000000e+00)	(0.000000e+00 0.000000e+00 0.000000e+00)	(0.000000e+00 -1.390940e-08 0.000000e+00)	(0.000000e+00 0.000000e+00 0.000000e+00)
2.9           	(0.000000e+00 3.930598e-08 0.000000e+00)	(0.000000e+00 3.930598e-08 0.000000e+00)	(0.000000e+00 0.000000e+00 0.000000e+00)	(0.000000e+00 -1.919518e-08 0.000000e+00)	(0.000000e+00 0.000000e+00 0.000000e+00)
3             	(0.000000e+00 3.712522e-08 0.000000e+00)	(0.000000e+00 3.712522e-08 0.000000e+00)	(0.000000e+00 0.000000e+00 0.000000e+00)	(0.000000e+00 -2.431521e-08 0.000000e+00)	(0.000000e+00 0.000000e+00 0.000000e+00)
3.1           	(0.000000e+00 3.444293e-08 0.000000e+00)	(0.000000e+00 3.444293e-08 0.000000e+00)	(0.000000e+00 0.000000e+00 0.000000e+00)	(0.000000e+00 -2.917966e-08 0.000000e+00)	(0.000000e+00 0.000000e+00 0.000000e+00)
3.2           	(0.000000e+00 3.128929e-08 0.000000e+00)	(0.000000e+00 3.128929e-08 0.000000e+00)	(0.000000e+00 0.000000e+00 0.000000e+00)	(0.000000e+00 -3.370984e-08 0.000000e+00)	(0.000000e+00 0.000000e+00 0.000000e+00)
3.3           	(0.000000e+00 2.770097e-08 0.000000e+00)	(0.000000e+00 2.770097e-08 0.000000e+00)	(0.000000e+00 0.000000e+00 0.000000e+00)	(0.000000e+00 -3.783654e-08 0.000000e+00)	(0.000000e+00 0.000000e+00 0.000000e+00)
3.4           	(0.000000e+00 2.372198e-08 0.000000e+00)	(0.000000e+00 2.372198e-08 0.000000e+00)	(0.000000e+00 0.000000e+00 0.000000e+00)	(0.000000e+00 -4.149132e-08 0.000000e+00)	(0.000000e+00 0.000000e+00 0.000000e+00)
3.5           	(0.000000e+00 1.940270e-08 0.000000e+00)	(0.000000e+00 1.940270e-08 0.000000e+00)	(0.000000e+00 0.000000e+00 0.000000e+00)	(0.000000e+00 -4.461290e-08 0.000000e+00)	(0.000000e+00 0.000000e+00 0.000000e+00)
3.6           	(0.000000e+00 1.479940e-08 0.000000e+00)	(0.000000e+00 1.479940e-08 0.000000e+00)	(0.000000e+00 0.000000e+00 0.000000e+00)	(0.000000e+00 -4.714728e-08 0.000000e+00)	(0.000000e+00 0.000000e+00 0.000000e+00)
3.7           	(0.000000e+00 9.973247e-09 0.000000e+00)	(0.000000e+00 9.973247e-09 0.000000e+00)	(0.000000e+00 0.000000e+00 0.000000e+00)	(0.000000e+00 -4.904867e-08 0.000000e+00)	(0.000000e+00 0.000000e+00 0.000000e+00)
3.8           	(0.000000e+00 4.989666e-09 0.000000e+00)	(0.000000e+00 4.989666e-09 0.000000e+00)	(0.000000e+00 0.000000e+00 0.000000e+00)	(0.000000e+00 -5.028221e-08 0.000000e+00)	(0.000000e+00 0.000000e+00 0.000000e+00)
3.9           	(0.000000e+00 -8.319494e-11 0.000000e+00)	(0.000000e+00 -8.319494e-11 0.000000e+00)	(0.000000e+00 0.000000e+00 0.000000e+00)	(0.000000e+00 -5.082572e-08 0.000000e+00)	(0.000000e+00 0.000000e+00 0.000000e+00)
4             	(0.000000e+00 -5.175478e-09 0.000000e+00)	(0.000000e+00 -5.175478e-09 0.000000e+00)	(0.000000e+00 0.000000e+00 0.000000e+00)	(0.000000e+00 -5.066314e-08 0.000000e+00)	(0.000000e+00 0.000000e+00 0.000000e+00)
4.1           	(0.000000e+00 -1.021582e-08 0.000000e+00)	(0.000000e+00 -1.021582e-08 0.000000e+00)	(0.000000e+00 0.000000e+00 0.000000e+00)	(0.000000e+00 -4.978723e-08 0.000000e+00)	(0.000000e+00 0.000000e+00 0.000000e+00)
4.2           	(0.000000e+00 -1.513292e-08 0.000000e+00)	(0.000000e+00 -1.513292e-08 0.000000e+00)	(0.000000e+00 0.000000e+00 0.000000e+00)	(0.000000e+00 -4.821308e-08 0.000000e+00)	(0.000000e+00 0.000000e+00 0.000000e+00)
4.3           	(0.000000e+00 -1.985844e-08 0.000000e+00)	(0.000000e+00 -1.985844e-08 0.000000e+00)	(0.000000e+00 0.000000e+00 0.000000e+00)	(0.000000e+00 -4.595499e-08 0.000000e+00)	(0.000000e+00 0.000000e+00 0.000000e+00)
4.4           	(0.000000e+00 -2.432392e-08 0.000000e+00)	(0.000000e+00 -2.432392e-08 0.000000e+00)	(0.000000e+00 0.000000e+00 0.000000e+00)	(0.000000e+00 -4.303715e-08 0.000000e+00)	(0.000000e+00 0.000000e+00 0.000000e+00)
4.5           	(0.000000e+00 -2.846587e-08 0.000000e+00)	(0.000000e+00 -2.846587e-08 0.000000e+00)	(0.000000e+00 0.000000e+00 0.000000e+00)	(0.000000e+00 -3.950692e-08 0.000000e+00)	(0.000000e+00 0.000000e+00 0.000000e+00)
4.6           	(0.000000e+00 -3.222530e-08 0.000000e+00)	(0.000000e+00 -3.222530e-08 0.000000e+00)	(0.000000e+00 0.000000e+00 0.000000e+00)	(0.000000e+00 -3.541409e-08 0.000000e+00)	(0.000000e+00 0.000000e+00 0.000000e+00)
4.7           	(0.000000e+00 -3.554869e-08 0.000000e+00)	(0.000000e+00 -3.554869e-08 0.000000e+00)	(0.000000e+00 0.000000e+00 0.000000e+00)	(0.000000e+00 -3.081905e-08 0.000000e+00)	(0.000000e+00 0.000000e+00 0.000000e+00)
4.8           	(0.000000e+00 -3.838911e-08 0.000000e+00)	(0.000000e+00 -3.838911e-08 0.000000e+00)	(0.000000e+00 0.000000e+00 0.000000e+00)	(0.000000e+00 -2.578715e-08 0.000000e+00)	(0.000000e+00 0.000000e+00 0.000000e+00)
4.9           	(0.000000e+00 -4.070612e-08 0.000000e+00)	(0.000000e+00 -4.070612e-08 0.000000e+00)	(0.000000e+00 0.000000e+00 0.000000e+00)	(0.000000e+00 -2.039052e-08 0.000000e+00)	(0.000000e+00 0.000000e+00 0.000000e+00)
5             	(0.000000e+00 -4.246722e-08 0.000000e+00)	(0.000000e+00 -4.246722e-08 0.000000e+00)	(0.000000e+00 0.000000e+00 0.000000e+00)	(0.000000e+00 -1.471315e-08 0.000000e+00)	(0.000000e+00 0.000000e+00 0.000000e+00)
5.1           	(0.000000e+00 -4.364875e-08 0.000000e+00)	(0.000000e+00 -4.364875e-08 0.000000e+00)	(0.000000e+00 0.000000e+00 0.000000e+00)	(0.000000e+00 -8.837569e-09 0.000000e+00)	(0.000000e+00 0.000000e+00 0.000000e+00)
5.2           	(0.000000e+00 -4.423473e-08 0.000000e+00)	(0.000000e+00 -4.423473e-08 0.000000e+00)	(0.000000e+00 0.000000e+00 0.000000e+00)	(0.000000e+00 -2.848788e-09 0.000000e+00)	(0.000000e+00 0.000000e+00 0.000000e+00)
5.3           	(0.000000e+00 -4.421850e-08 0.000000e+00)	(0.000000e+00 -4.421850e-08 0.000000e+00)	(0.000000e+00 0.000000e+00 0.000000e+00)	(0.000000e+00 3.161675e-09 0.000000e+00)	(0.000000e+00 0.000000e+00 0.000000e+00)
5.4           	(0.000000e+00 -4.360240e-08 0.000000e+00)	(0.000000e+00 -4.360240e-08 0.000000e+00)	(0.000000e+00 0.000000e+00 0.000000e+00)	(0.000000e+00 9.103074e-09 0.000000e+00)	(0.000000e+00 0.000000e+00 0.000000e+00)
5.5           	(0.000000e+00 -4.239789e-08 0.000000e+00)	(0.000000e+00 -4.239789e-08 0.000000e+00)	(0.000000e+00 0.000000e+00 0.000000e+00)	(0.000000e+00 1.488713e-08 0.000000e+00)	(0.000000e+00 0.000000e+00 0.000000e+00)
5.6           	(0.000000e+00 -4.062497e-08 0.000000e+00)	(0.000000e+00 -4.062497e-08 0.000000e+00)	(0.000000e+00 0.000000e+00 0.000000e+00)	(0.000000e+00 2.042848e-08 0.000000e+00)	(0.000000e+00 0.000000e+00 0.000000e+00)
5.7           	(0.000000e+00 -3.831219e-08 0.000000e+00)	(0.000000e+00 -3.831219e-08 0.000000e+00)	(0.000000e+00 0.000000e+00 0.000000e+00)	(0.000000e+00 2.564141e-08 0.000000e+00)	(0.000000e+00 0.000000e+00 0.000000e+00)
5.8           	(0.000000e+00 -3.549669e-08 0.000000e+00)	(0.000000e+00 -3.549669e-08 0.000000e+00)	(0.000000e+00 0.000000e+00 0.000000e+00)	(0.000000e+00 3.044939e-08 0.000000e+00)	(0.000000e+00 0.000000e+00 0.000000e+00)
5.9           	(0.000000e+00 -3.222232e-08 0.000000e+00)	(0.000000e+00 -3.222232e-08 0.000000e+00)	(0.000000e+00 0.000000e+00 0.000000e+00)	(0.000000e+00 3.478202e-08 0.000000e+00)	(0.000000e+00 0.000000e+00 0.000000e+00)
6             	(0.000000e+00 -2.854029e-08 0.000000e+00)	(0.000000e+00 -2.854029e-08 0.000000e+00)	(0.000000e+00 0.000000e+00 0.000000e+00)	(0.000000e+00 3.857270e-08 0.000000e+00)	(0.000000e+00 0.000000e+00 0.000000e+00)
6.1           	(0.000000e+00 -2.450778e-08 0.000000e+00)	(0.000000e+00 -2.450778e-08 0.000000e+00)	(0.000000e+00 0.000000e+00 0.000000e+00)	(0.000000e+00 4.176678e-08 0.000000e+00)	(0.000000e+00 0.000000e+00 0.000000e+00)
6.2           	(0.000000e+00 -2.018693e-08 0.000000e+00)	(0.000000e+00 -2.018693e-08 0.000000e+00)	(0.000000e+00 0.000000e+00 0.000000e+00)	(0.000000e+00 4.431796e-08 0.000000e+00)	(0.000000e+00 0.000000e+00 0.000000e+00)
6.3           	(0.000000e+00 -1.564418e-08 0.000000e+00)	(0.000000e+00 -1.564418e-08 0.000000e+00)	(0.000000e+00 0.000000e+00 0.000000e+00)	(0.000000e+00 4.618747e-08 0.000000e+00)	(0.000000e+00 0.000000e+00 0.000000e+00)
6.4           	(0.000000e+00 -1.094944e-08 0.000000e+00)	(0.000000e+00 -1.094944e-08 0.000000e+00)	(0.000000e+00 0.000000e+00 0.000000e+00)	(0.000000e+00 4.734872e-08 0.000000e+00)	(0.000000e+00 0.000000e+00 0.000000e+00)
6.5           	(0.000000e+00 -6.174438e-09 0.000000e+00)	(0.000000e+00 -6.174438e-09 0.000000e+00)	(0.000000e+00 0.000000e+00 0.000000e+00)	(0.000000e+00 4.778486e-08 0.000000e+00)	(0.000000e+00 0.000000e+00 0.000000e+00)
6.6           	(0.000000e+00 -1.392464e-09 0.000000e+00)	(0.000000e+00 -1.392464e-09 0.000000e+00)	(0.000000e+00 0.000000e+00 0.000000e+00)	(0.000000e+00 4.749030e-08 0.000000e+00)	(0.000000e+00 0.000000e+00 0.000000e+00)
6.7           	(0.000000e+00 3.323622e-09 0.000000e+00)	(0.000000e+00 3.323622e-09 0.000000e+00)	(0.000000e+00 0.000000e+00 0.000000e+00)	(0.000000e+00 4.647388e-08 0.000000e+00)	(0.000000e+00 0.000000e+00 0.000000e+00)
6.8           	(0.000000e+00 7.902312e-09 0.000000e+00)	(0.000000e+00 7.902312e-09 0.000000e+00)	(0.000000e+00 0.000000e+00 0.000000e+00)	(0.000000e+00 4.475363e-08 0.000000e+00)	(0.000000e+00 0.000000e+00 0.000000e+00)
6.9           	(0.000000e+00 1.227435e-08 0.000000e+00)	(0.000000e+00 1.227435e-08 0.000000e+00)	(0.000000e+00 0.000000e+00 0.000000e+00)	(0.000000e+00 4.235986e-08 0.000000e+00)	(0.000000e+00 0.000000e+00 0.000000e+00)
7             	(0.000000e+00 1.637428e-08 0.000000e+00)	(0.000000e+00 1.637428e-08 0.000000e+00)	(0.000000e+00 0.000000e+00 0.000000e+00)	(0.000000e+00 3.933009e-08 0.000000e+00)	(0.000000e+00 0.000000e+00 0.000000e+00)
7.1           	(0.000000e+00 2.014037e-08 0.000000e+00)	(0.000000e+00 2.014037e-08 0.000000e+00)	(0.000000e+00 0.000000e+00 0.000000e+00)	(0.000000e+00 3.571017e-08 0.000000e+00)	(0.000000e+00 0.000000e+00 0.000000e+00)
7.2           	(0.000000e+00 2.351632e-08 0.000000e+00)	(0.000000e+00 2.351632e-08 0.000000e+00)	(0.000000e+00 0.000000e+00 0.000000e+00)	(0.000000e+00 3.155747e-08 0.000000e+00)	(0.000000e+00 0.000000e+00 0.000000e+00)
7.3           	(0.000000e+00 2.645186e-08 0.000000e+00)	(0.000000e+00 2.645186e-08 0.000000e+00)	(0.000000e+00 0.000000e+00 0.000000e+00)	(0.000000e+00 2.694025e-08 0.000000e+00)	(0.000000e+00 0.000000e+00 0.000000e+00)
7.4           	(0.000000e+00 2.890437e-08 0.000000e+00)	(0.000000e+00 2.890437e-08 0.000000e+00)	(0.000000e+00 0.000000e+00 0.000000e+00)	(0.000000e+00 2.193206e-08 0.000000e+00)	(0.000000e+00 0.000000e+00 0.000000e+00)
7.5           	(0.000000e+00 3.083827e-08 0.000000e+00)	(0.000000e+00 3.083827e-08 0.000000e+00)	(0.000000e+00 0.000000e+00 0.000000e+00)	(0.000000e+00 1.660906e-08 0.000000e+00)	(0.000000e+00 0.000000e+00 0.000000e+00)
7.6           	(0.000000e+00 3.222618e-08 0.000000e+00)	(0.000000e+00 3.222618e-08 0.000000e+00)	(0.000000e+00 0.000000e+00 0.000000e+00)	(0.000000e+00 1.105851e-08 0.000000e+00)	(0.000000e+00 0.000000e+00 0.000000e+00)
7.7           	(0.000000e+00 3.304997e-08 0.000000e+00)	(0.000000e+00 3.304997e-08 0.000000e+00)	(0.000000e+00 0.000000e+00 0.000000e+00)	(0.000000e+00 5.368685e-09 0.000000e+00)	(0.000000e+00 0.000000e+00 0.000000e+00)
7.8           	(0.000000e+00 3.329992e-08 0.000000e+00)	(0.000000e+00 3.329992e-08 0.000000e+00)	(0.000000e+00 0.000000e+00 0.000000e+00)	(0.000000e+00 -3.709693e-10 0.000000e+00)	(0.000000e+00 0.000000e+00 0.000000e+00)
7.9           	(0.000000e+00 3.297578e-08 0.000000e+00)	(0.000000e+00 3.297578e-08 0.000000e+00)	(0.000000e+00 0.000000e+00 0.000000e+00)	(0.000000e+00 -6.066076e-09 0.000000e+00)	(0.000000e+00 0.000000e+00 0.000000e+00)
8             	(0.000000e+00 3.208670e-08 0.000000e+00)	(0.000000e+00 3.208670e-08 0.000000e+00)	(0.000000e+00 0.000000e+00 0.000000e+00)	(0.000000e+00 -1.163005e-08 0.000000e+00)	(0.000000e+00 0.000000e+00 0.000000e+00)
8.1           	(0.000000e+00 3.064977e-08 0.000000e+00)	(0.000000e+00 3.064977e-08 0.000000e+00)	(0.000000e+00 0.000000e+00 0.000000e+00)	(0.000000e+00 -1.698016e-08 0.000000e+00)	(0.000000e+00 0.000000e+00 0.000000e+00)
8.2           	(0.000000e+00 2.869067e-08 0.000000e+00)	(0.000000e+00 2.869067e-08 0.000000e+00)	(0.000000e+00 0.000000e+00 0.000000e+00)	(0.000000e+00 -2.203040e-08 0.000000e+00)	(0.000000e+00 0.000000e+00 0.000000e+00)
8.3           	(0.000000e+00 2.624369e-08 0.000000e+00)	(0.000000e+00 2.624369e-08 0.000000e+00)	(0.000000e+00 0.000000e+00 0.000000e+00)	(0.000000e+00 -2.670115e-08 0.000000e+00)	(0.000000e+00 0.000000e+00 0.000000e+00)
8.4           	(0.000000e+00 2.335044e-08 0.000000e+00)	(0.000000e+00 2.335044e-08 0.000000e+00)	(0.000000e+00 0.000000e+00 0.000000e+00)	(0.000000e+00 -3.091846e-08 0.000000e+00)	(0.000000e+00 0.000000e+00 0.000000e+00)
8.5           	(0.000000e+00 2.005999e-08 0.000000e+00)	(0.000000e+00 2.005999e-08 0.000000e+00)	(0.000000e+00 0.000000e+00 0.000000e+00)	(0.000000e+00 -3.461936e-08 0.000000e+00)	(0.000000e+00 0.000000e+00 0.000000e+00)
8.6           	(0.000000e+00 1.642657e-08 0.000000e+00)	(0.000000e+00 1.642657e-08 0.000000e+00)	(0.000000e+00 0.000000e+00 0.000000e+00)	(0.000000e+00 -3.774995e-08 0.000000e+00)	(0.000000e+00 0.000000e+00 0.000000e+00)
8.7           	(0.000000e+00 1.251000e-08 0.000000e+00)	(0.000000e+00 1.251000e-08 0.000000e+00)	(0.000000e+00 0.000000e+00 0.000000e+00)	(0.000000e+00 -4.025795e-08 0.000000e+00)	(0.000000e+00 0.000000e+00 0.000000e+00)
8.8           	(0.000000e+00 8.374976e-09 0.000000e+00)	(0.000000e+00 8.374976e-09 0.000000e+00)	(0.000000e+00 0.000000e+00 0.000000e+00)	(0.000000e+00 -4.210625e-08 0.000000e+00)	(0.000000e+00 0.000000e+00 0.000000e+00)
8.9           	(0.000000e+00 4.088754e-09 0.000000e+00)	(0.000000e+00 4.088754e-09 0.000000e+00)	(0.000000e+00 0.000000e+00 0.000000e+00)	(0.000000e+00 -4.326743e-08 0.000000e+00)	(0.000000e+00 0.000000e+00 0.000000e+00)
9             	(0.000000e+00 -2.785108e-10 0.000000e+00)	(0.000000e+00 -2.785108e-10 0.000000e+00)	(0.000000e+00 0.000000e+00 0.000000e+00)	(0.000000e+00 -4.372144e-08 0.000000e+00)	(0.000000e+00 0.000000e+00 0.000000e+00)
9.1           	(0.000000e+00 -4.655535e-09 0.000000e+00)	(0.000000e+00 -4.655535e-09 0.000000e+00)	(0.000000e+00 0.000000e+00 0.000000e+00)	(0.000000e+00 -4.346282e-08 0.000000e+00)	(0.000000e+00 0.000000e+00 0.000000e+00)
9.2           	(0.000000e+00 -8.971075e-09 0.000000e+00)	(0.000000e+00 -8.971075e-09 0.000000e+00)	(0.000000e+00 0.000000e+00 0.000000e+00)	(0.000000e+00 -4.250220e-08 0.000000e+00)	(0.000000e+00 0.000000e+00 0.000000e+00)
9.3           	(0.000000e+00 -1.315597e-08 0.000000e+00)	(0.000000e+00 -1.315597e-08 0.000000e+00)	(0.000000e+00 0.000000e+00 0.000000e+00)	(0.000000e+00 -4.085724e-08 0.000000e+00)	(0.000000e+00 0.000000e+00 0.000000e+00)
9.4           	(0.000000e+00 -1.714252e-08 0.000000e+00)	(0.000000e+00 -1.714252e-08 0.000000e+00)	(0.000000e+00 0.000000e+00 0.000000e+00)	(0.000000e+00 -3.855175e-08 0.000000e+00)	(0.000000e+00 0.000000e+00 0.000000e+00)
9.5           	(0.000000e+00 -2.086632e-08 0.000000e+00)	(0.000000e+00 -2.086632e-08 0.000000e+00)	(0.000000e+00 0.000000e+00 0.000000e+00)	(0.000000e+00 -3.562249e-08 0.000000e+00)	(0.000000e+00 0.000000e+00 0.000000e+00)
9.6           	(0.000000e+00 -2.426702e-08 0.000000e+00)	(0.000000e+00 -2.426702e-08 0.000000e+00)	(0.000000e+00 0.000000e+00 0.000000e+00)	(0.000000e+00 -3.211640e-08 0.000000e+00)	(0.000000e+00 0.000000e+00 0.000000e+00)
9.7           	(0.000000e+00 -2.728960e-08 0.000000e+00)	(0.000000e+00 -2.728960e-08 0.000000e+00)	(0.000000e+00 0.000000e+00 0.000000e+00)	(0.000000e+00 -2.809311e-08 0.000000e+00)	(0.000000e+00 0.000000e+00 0.000000e+00)
9.8           	(0.000000e+00 -2.988564e-08 0.000000e+00)	(0.000000e+00 -2.988564e-08 0.000000e+00)	(0.000000e+00 0.000000e+00 0.000000e+00)	(0.000000e+00 -2.361383e-08 0.000000e+00)	(0.000000e+00 0.000000e+00 0.000000e+00)
9.9           	(0.000000e+00 -3.201237e-08 0.000000e+00)	(0.000000e+00 -3.201237e-08 0.000000e+00)	(0.000000e+00 0.000000e+00 0.000000e+00)	(0.000000e+00 -1.874106e-08 0.000000e+00)	(0.000000e+00 0.000000e+00 0.000000e+00)
10            	(0.000000e+00 -3.363386e-08 0.000000e+00)	(0.000000e+00 -3.363386e-08 0.000000e+00)	(0.000000e+00 0.000000e+00 0.000000e+00)	(0.000000e+00 -1.355964e-08 0.000000e+00)	(0.000000e+00 0.000000e+00 0.000000e+00)
10.1          	(0.000000e+00 -3.472430e-08 0.000000e+00)	(0.000000e+00 -3.472430e-08 0.000000e+00)	(0.000000e+00 0.000000e+00 0.000000e+00)	(0.000000e+00 -8.157642e-09 0.000000e+00)	(0.000000e+00 0.000000e+00 0.000000e+00)
10.2          	(0.000000e+00 -3.526538e-08 0.000000e+00)	(0.000000e+00 -3.526538e-08 0.000000e+00)	(0.000000e+00 0.000000e+00 0.000000e+00)	(0.000000e+00 -2.614937e-09 0.000000e+00)	(0.000000e+00 0.000000e+00 0.000000e+00)
10.3          	(0.000000e+00 -3.524729e-08 0.000000e+00)	(0.000000e+00 -3.524729e-08 0.000000e+00)	(0.000000e+00 0.000000e+00 0.000000e+00)	(0.000000e+00 2.982927e-09 0.000000e+00)	(0.000000e+00 0.000000e+00 0.000000e+00)
10.4          	(0.000000e+00 -3.466880e-08 0.000000e+00)	(0.000000e+00 -3.466880e-08 0.000000e+00)	(0.000000e+00 0.000000e+00 0.000000e+00)	(0.000000e+00 8.545409e-09 0.000000e+00)	(0.000000e+00 0.000000e+00 0.000000e+00)
10.5          	(0.000000e+00 -3.353821e-08 0.000000e+00)	(0.000000e+00 -3.353821e-08 0.000000e+00)	(0.000000e+00 0.000000e+00 0.000000e+00)	(0.000000e+00 1.398403e-08 0.000000e+00)	(0.000000e+00 0.000000e+00 0.000000e+00)
10.6          	(0.000000e+00 -3.187199e-08 0.000000e+00)	(0.000000e+00 -3.187199e-08 0.000000e+00)	(0.000000e+00 0.000000e+00 0.000000e+00)	(0.000000e+00 1.921480e-08 0.000000e+00)	(0.000000e+00 0.000000e+00 0.000000e+00)
10.7          	(0.000000e+00 -2.969525e-08 0.000000e+00)	(0.000000e+00 -2.969525e-08 0.000000e+00)	(0.000000e+00 0.000000e+00 0.000000e+00)	(0.000000e+00 2.415041e-08 0.000000e+00)	(0.000000e+00 0.000000e+00 0.000000e+00)
10.8          	(0.000000e+00 -2.704191e-08 0.000000e+00)	(0.000000e+00 -2.704191e-08 0.000000e+00)	(0.000000e+00 0.000000e+00 0.000000e+00)	(0.000000e+00 2.871216e-08 0.000000e+00)	(0.000000e+00 0.000000e+00 0.000000e+00)
10.9          	(0.000000e+00 -2.395281e-08 0.000000e+00)	(0.000000e+00 -2.395281e-08 0.000000e+00)	(0.000000e+00 0.000000e+00 0.000000e+00)	(0.000000e+00 3.283388e-08 0.000000e+00)	(0.000000e+00 0.000000e+00 0.000000e+00)
11            	(0.000000e+00 -2.047514e-08 0.000000e+00)	(0.000000e+00 -2.047514e-08 0.000000e+00)	(0.000000e+00 0.000000e+00 0.000000e+00)	(0.000000e+00 3.645427e-08 0.000000e+00)	(0.000000e+00 0.000000e+00 0.000000e+00)
11.1          	(0.000000e+00 -1.666196e-08 0.000000e+00)	(0.000000e+00 -1.666196e-08 0.000000e+00)	(0.000000e+00 0.000000e+00 0.000000e+00)	(0.000000e+00 3.950630e-08 0.000000e+00)	(0.000000e+00 0.000000e+00 0.000000e+00)
11.2          	(0.000000e+00 -1.257388e-08 0.000000e+00)	(0.000000e+00 -1.257388e-08 0.000000e+00)	(0.000000e+00 0.000000e+00 0.000000e+00)	(0.000000e+00 4.194211e-08 0.000000e+00)	(0.000000e+00 0.000000e+00 0.000000e+00)
11.3          	(0.000000e+00 -8.273539e-09 0.000000e+00)	(0.000000e+00 -8.273539e-09 0.000000e+00)	(0.000000e+00 0.000000e+00 0.000000e+00)	(0.000000e+00 4.373027e-08 0.000000e+00)	(0.000000e+00 0.000000e+00 0.000000e+00)
11.4          	(0.000000e+00 -3.827821e-09 0.000000e+00)	(0.000000e+00 -3.827821e-09 0.000000e+00)	(0.000000e+00 0.000000e+00 0.000000e+00)	(0.000000e+00 4.483859e-08 0.000000e+00)	(0.000000e+00 0.000000e+00 0.000000e+00)
11.5          	(0.000000e+00 6.941793e-10 0.000000e+00)	(0.000000e+00 6.941793e-10 0.000000e+00)	(0.000000e+00 0.000000e+00 0.000000e+00)	(0.000000e+00 4.525004e-08 0.000000e+00)	(0.000000e+00 0.000000e+00 0.000000e+00)
11.6          	(0.000000e+00 5.222187e-09 0.000000e+00)	(0.000000e+00 5.222187e-09 0.000000e+00)	(0.000000e+00 0.000000e+00 0.000000e+00)	(0.000000e+00 4.495694e-08 0.000000e+00)	(0.000000e+00 0.000000e+00 0.000000e+00)
11.7          	(0.000000e+00 9.685567e-09 0.000000e+00)	(0.000000e+00 9.685567e-09 0.000000e+00)	(0.000000e+00 0.000000e+00 0.000000e+00)	(0.000000e+00 4.396235e-08 0.000000e+00)	(0.000000e+00 0.000000e+00 0.000000e+00)
11.8          	(0.000000e+00 1.401466e-08 0.000000e+00)	(0.000000e+00 1.401466e-08 0.000000e+00)	(0.000000e+00 0.000000e+00 0.000000e+00)	(0.000000e+00 4.228092e-08 0.000000e+00)	(0.000000e+00 0.000000e+00 0.000000e+00)
11.9          	(0.000000e+00 1.814175e-08 0.000000e+00)	(0.000000e+00 1.814175e-08 0.000000e+00)	(0.000000e+00 0.000000e+00 0.000000e+00)	(0.000000e+00 3.993833e-08 0.000000e+00)	(0.000000e+00 0.000000e+00 0.000000e+00)
12            	(0.000000e+00 2.200233e-08 0.000000e+00)	(0.000000e+00 2.200233e-08 0.000000e+00)	(0.000000e+00 0.000000e+00 0.000000e+00)	(0.000000e+00 3.697043e-08 0.000000e+00)	(0.000000e+00 0.000000e+00 0.000000e+00)
12.1          	(0.000000e+00 2.553584e-08 0.000000e+00)	(0.000000e+00 2.553584e-08 0.000000e+00)	(0.000000e+00 0.000000e+00 0.000000e+00)	(0.000000e+00 3.342704e-08 0.000000e+00)	(0.000000e+00 0.000000e+00 0.000000e+00)
12.2          	(0.000000e+00 2.868773e-08 0.000000e+00)	(0.000000e+00 2.868773e-08 0.000000e+00)	(0.000000e+00 0.000000e+00 0.000000e+00)	(0.000000e+00 2.935630e-08 0.000000e+00)	(0.000000e+00 0.000000e+00 0.000000e+00)
12.3          	(0.000000e+00 3.140710e-08 0.000000e+00)	(0.000000e+00 3.140710e-08 0.000000e+00)	(0.000000e+00 0.000000e+00 0.000000e+00)	(0.000000e+00 2.481957e-08 0.000000e+00)	(0.000000e+00 0.000000e+00 0.000000e+00)
12.4          	(0.000000e+00 3.365165e-08 0.000000e+00)	(0.000000e+00 3.365165e-08 0.000000e+00)	(0.000000e+00 0.000000e+00 0.000000e+00)	(0.000000e+00 1.989298e-08 0.000000e+00)	(0.000000e+00 0.000000e+00 0.000000e+00)
12.5          	(0.000000e+00 3.538569e-08 0.000000e+00)	(0.000000e+00 3.538569e-08 0.000000e+00)	(0.000000e+00 0.000000e+00 0.000000e+00)	(0.000000e+00 1.465022e-08 0.000000e+00)	(0.000000e+00 0.000000e+00 0.000000e+00)
12.6          	(0.000000e+00 3.658169e-08 0.000000e+00)	(0.000000e+00 3.658169e-08 0.000000e+00)	(0.000000e+00 0.000000e+00 0.000000e+00)	(0.000000e+00 9.171159e-09 0.000000e+00)	(0.000000e+00 0.000000e+00 0.000000e+00)
12.7          	(0.000000e+00 3.721993e-08 0.000000e+00)	(0.000000e+00 3.721993e-08 0.000000e+00)	(0.000000e+00 0.000000e+00 0.000000e+00)	(0.000000e+00 3.540554e-09 0.000000e+00)	(0.000000e+00 0.000000e+00 0.000000e+00)
12.8          	(0.000000e+00 3.728980e-08 0.000000e+00)	(0.000000e+00 3.728980e-08 0.000000e+00)	(0.000000e+00 0.000000e+00 0.000000e+00)	(0.000000e+00 -2.152960e-09 0.000000e+00)	(0.000000e+00 0.000000e+00 0.000000e+00)
12.9          	(0.000000e+00 3.678933e-08 0.000000e+00)	(0.000000e+00 3.678933e-08 0.000000e+00)	(0.000000e+00 0.000000e+00 0.000000e+00)	(0.000000e+00 -7.823524e-09 0.000000e+00)	(0.000000e+00 0.000000e+00 0.000000e+00)
13            	(0.000000e+00 3.572510e-08 0.000000e+00)	(0.000000e+00 3.572510e-08 0.000000e+00)	(0.000000e+00 0.000000e+00 0.000000e+00)	(0.000000e+00 -1.338363e-08 0.000000e+00)	(0.000000e+00 0.000000e+00 0.000000e+00)
13.1          	(0.000000e+00 3.411261e-08 0.000000e+00)	(0.000000e+00 3.411261e-08 0.000000e+00)	(0.000000e+00 0.000000e+00 0.000000e+00)	(0.000000e+00 -1.874725e-08 0.000000e+00)	(0.000000e+00 0.000000e+00 0.000000e+00)
13.2          	(0.000000e+00 3.197565e-08 0.000000e+00)	(0.000000e+00 3.197565e-08 0.000000e+00)	(0.000000e+00 0.000000e+00 0.000000e+00)	(0.000000e+00 -2.383208e-08 0.000000e+00)	(0.000000e+00 0.000000e+00 0.000000e+00)
13.3          	(0.000000e+00 2.934619e-08 0.000000e+00)	(0.000000e+00 2.934619e-08 0.000000e+00)	(0.000000e+00 0.000000e+00 0.000000e+00)	(0.000000e+00 -2.855929e-08 0.000000e+00)	(0.000000e+00 0.000000e+00 0.000000e+00)
13.4          	(0.000000e+00 2.626379e-08 0.000000e+00)	(0.000000e+00 2.626379e-08 0.000000e+00)	(0.000000e+00 0.000000e+00 0.000000e+00)	(0.000000e+00 -3.285684e-08 0.000000e+00)	(0.000000e+00 0.000000e+00 0.000000e+00)